-8.000000e+00 0.000000e+00
-7.990000e+00 0.000000e+00
-7.980000e+00 0.000000e+00
-7.970000e+00 0.000000e+00
-7.960000e+00 0.000000e+00
-7.950000e+00 0.000000e+00
-7.940000e+00 0.000000e+00
-7.930000e+00 0.000000e+00
-7.920000e+00 0.000000e+00
-7.910000e+00 0.000000e+00
-7.900000e+00 0.000000e+00
-7.890000e+00 0.000000e+00
-7.880000e+00 0.000000e+00
-7.870000e+00 0.000000e+00
-7.860000e+00 0.000000e+00
-7.850000e+00 0.000000e+00
-7.840000e+00 0.000000e+00
-7.830000e+00 0.000000e+00
-7.820000e+00 0.000000e+00
-7.810000e+00 0.000000e+00
-7.800000e+00 0.000000e+00
-7.790000e+00 0.000000e+00
-7.780000e+00 0.000000e+00
-7.770000e+00 0.000000e+00
-7.760000e+00 0.000000e+00
-7.750000e+00 0.000000e+00
-7.740000e+00 0.000000e+00
-7.730000e+00 0.000000e+00
-7.720000e+00 0.000000e+00
-7.710000e+00 0.000000e+00
-7.700000e+00 0.000000e+00
-7.690000e+00 0.000000e+00
-7.680000e+00 0.000000e+00
-7.670000e+00 0.000000e+00
-7.660000e+00 0.000000e+00
-7.650000e+00 0.000000e+00
-7.640000e+00 0.000000e+00
-7.630000e+00 0.000000e+00
-7.620000e+00 0.000000e+00
-7.610000e+00 0.000000e+00
-7.600000e+00 0.000000e+00
-7.590000e+00 0.000000e+00
-7.580000e+00 0.000000e+00
-7.570000e+00 0.000000e+00
-7.560000e+00 0.000000e+00
-7.550000e+00 0.000000e+00
-7.540000e+00 0.000000e+00
-7.530000e+00 0.000000e+00
-7.520000e+00 0.000000e+00
-7.510000e+00 0.000000e+00
-7.500000e+00 0.000000e+00
-7.490000e+00 0.000000e+00
-7.480000e+00 0.000000e+00
-7.470000e+00 0.000000e+00
-7.460000e+00 0.000000e+00
-7.450000e+00 0.000000e+00
-7.440000e+00 0.000000e+00
-7.430000e+00 0.000000e+00
-7.420000e+00 0.000000e+00
-7.410000e+00 0.000000e+00
-7.400000e+00 0.000000e+00
-7.390000e+00 0.000000e+00
-7.380000e+00 0.000000e+00
-7.370000e+00 0.000000e+00
-7.360000e+00 0.000000e+00
-7.350000e+00 0.000000e+00
-7.340000e+00 0.000000e+00
-7.330000e+00 0.000000e+00
-7.320000e+00 0.000000e+00
-7.310000e+00 0.000000e+00
-7.300000e+00 0.000000e+00
-7.290000e+00 0.000000e+00
-7.280000e+00 0.000000e+00
-7.270000e+00 0.000000e+00
-7.260000e+00 0.000000e+00
-7.250000e+00 0.000000e+00
-7.240000e+00 0.000000e+00
-7.230000e+00 0.000000e+00
-7.220000e+00 0.000000e+00
-7.210000e+00 0.000000e+00
-7.200000e+00 0.000000e+00
-7.190000e+00 0.000000e+00
-7.180000e+00 0.000000e+00
-7.170000e+00 0.000000e+00
-7.160000e+00 0.000000e+00
-7.150000e+00 0.000000e+00
-7.140000e+00 0.000000e+00
-7.130000e+00 0.000000e+00
-7.120000e+00 0.000000e+00
-7.110000e+00 0.000000e+00
-7.100000e+00 0.000000e+00
-7.090000e+00 0.000000e+00
-7.080000e+00 0.000000e+00
-7.070000e+00 0.000000e+00
-7.060000e+00 0.000000e+00
-7.050000e+00 0.000000e+00
-7.040000e+00 0.000000e+00
-7.030000e+00 0.000000e+00
-7.020000e+00 0.000000e+00
-7.010000e+00 0.000000e+00
-7.000000e+00 0.000000e+00
-6.990000e+00 0.000000e+00
-6.980000e+00 0.000000e+00
-6.970000e+00 0.000000e+00
-6.960000e+00 0.000000e+00
-6.950000e+00 0.000000e+00
-6.940000e+00 0.000000e+00
-6.930000e+00 0.000000e+00
-6.920000e+00 0.000000e+00
-6.910000e+00 0.000000e+00
-6.900000e+00 0.000000e+00
-6.890000e+00 0.000000e+00
-6.880000e+00 0.000000e+00
-6.870000e+00 0.000000e+00
-6.860000e+00 0.000000e+00
-6.850000e+00 0.000000e+00
-6.840000e+00 0.000000e+00
-6.830000e+00 0.000000e+00
-6.820000e+00 0.000000e+00
-6.810000e+00 0.000000e+00
-6.800000e+00 0.000000e+00
-6.790000e+00 0.000000e+00
-6.780000e+00 0.000000e+00
-6.770000e+00 0.000000e+00
-6.760000e+00 0.000000e+00
-6.750000e+00 0.000000e+00
-6.740000e+00 0.000000e+00
-6.730000e+00 0.000000e+00
-6.720000e+00 0.000000e+00
-6.710000e+00 0.000000e+00
-6.700000e+00 0.000000e+00
-6.690000e+00 0.000000e+00
-6.680000e+00 0.000000e+00
-6.670000e+00 0.000000e+00
-6.660000e+00 0.000000e+00
-6.650000e+00 0.000000e+00
-6.640000e+00 0.000000e+00
-6.630000e+00 0.000000e+00
-6.620000e+00 0.000000e+00
-6.610000e+00 0.000000e+00
-6.600000e+00 0.000000e+00
-6.590000e+00 0.000000e+00
-6.580000e+00 0.000000e+00
-6.570000e+00 0.000000e+00
-6.560000e+00 0.000000e+00
-6.550000e+00 0.000000e+00
-6.540000e+00 0.000000e+00
-6.530000e+00 0.000000e+00
-6.520000e+00 0.000000e+00
-6.510000e+00 0.000000e+00
-6.500000e+00 0.000000e+00
-6.490000e+00 0.000000e+00
-6.480000e+00 0.000000e+00
-6.470000e+00 0.000000e+00
-6.460000e+00 0.000000e+00
-6.450000e+00 0.000000e+00
-6.440000e+00 0.000000e+00
-6.430000e+00 0.000000e+00
-6.420000e+00 0.000000e+00
-6.410000e+00 0.000000e+00
-6.400000e+00 0.000000e+00
-6.390000e+00 0.000000e+00
-6.380000e+00 0.000000e+00
-6.370000e+00 0.000000e+00
-6.360000e+00 0.000000e+00
-6.350000e+00 0.000000e+00
-6.340000e+00 0.000000e+00
-6.330000e+00 0.000000e+00
-6.320000e+00 0.000000e+00
-6.310000e+00 0.000000e+00
-6.300000e+00 0.000000e+00
-6.290000e+00 0.000000e+00
-6.280000e+00 0.000000e+00
-6.270000e+00 0.000000e+00
-6.260000e+00 0.000000e+00
-6.250000e+00 2.802597e-45
-6.240000e+00 2.802597e-45
-6.230000e+00 1.401298e-45
-6.220000e+00 0.000000e+00
-6.210000e+00 2.802597e-45
-6.200000e+00 4.203895e-45
-6.190000e+00 2.802597e-45
-6.180000e+00 2.802597e-45
-6.170000e+00 9.809089e-45
-6.160000e+00 9.809089e-45
-6.150000e+00 8.407791e-45
-6.140000e+00 2.802597e-45
-6.130000e+00 4.203895e-45
-6.120000e+00 7.006492e-45
-6.110000e+00 9.809089e-45
-6.100000e+00 7.006492e-45
-6.090000e+00 -1.401298e-45
-6.080000e+00 -1.401298e-45
-6.070000e+00 -5.605194e-45
-6.060000e+00 -1.401298e-44
-6.050000e+00 -1.401298e-44
-6.040000e+00 -2.382207e-44
-6.030000e+00 -2.942727e-44
-6.020000e+00 -3.923636e-44
-6.010000e+00 -3.783506e-44
-6.000000e+00 -4.203895e-44
-5.990000e+00 -4.904545e-44
-5.980000e+00 -5.184804e-44
-5.970000e+00 -5.465064e-44
-5.960000e+00 -4.904545e-44
-5.950000e+00 -4.904545e-44
-5.940000e+00 -3.643376e-44
-5.930000e+00 -1.961818e-44
-5.920000e+00 1.401298e-45
-5.910000e+00 1.121039e-44
-5.900000e+00 2.382207e-44
-5.890000e+00 4.484155e-44
-5.880000e+00 7.146622e-44
-5.870000e+00 1.022948e-43
-5.860000e+00 1.331234e-43
-5.850000e+00 1.569454e-43
-5.840000e+00 1.863727e-43
-5.830000e+00 2.059909e-43
-5.820000e+00 2.228065e-43
-5.810000e+00 2.382207e-43
-5.800000e+00 2.354181e-43
-5.790000e+00 2.410233e-43
-5.780000e+00 2.312142e-43
-5.770000e+00 2.073922e-43
-5.760000e+00 1.877740e-43
-5.750000e+00 1.317221e-43
-5.740000e+00 8.127531e-44
-5.730000e+00 1.821688e-44
-5.720000e+00 -7.847271e-44
-5.710000e+00 -1.877740e-43
-5.700000e+00 -3.026805e-43
-5.690000e+00 -4.344025e-43
-5.680000e+00 -5.801376e-43
-5.670000e+00 -7.567012e-43
-5.660000e+00 -9.220544e-43
-5.650000e+00 -1.074796e-42
-5.640000e+00 -1.226136e-42
-5.630000e+00 -1.387285e-42
-5.620000e+00 -1.521810e-42
-5.610000e+00 -1.618500e-42
-5.600000e+00 -1.689966e-42
-5.590000e+00 -1.720795e-42
-5.580000e+00 -1.682959e-42
-5.570000e+00 -1.558244e-42
-5.560000e+00 -1.364865e-42
-5.550000e+00 -1.087408e-42
-5.540000e+00 -7.146622e-43
-5.530000e+00 -2.354181e-43
-5.520000e+00 3.419168e-43
-5.510000e+00 1.035560e-42
-5.500000e+00 1.837102e-42
-5.490000e+00 2.732532e-42
-5.480000e+00 3.695224e-42
-5.470000e+00 4.739191e-42
-5.460000e+00 5.801376e-42
-5.450000e+00 6.860757e-42
-5.440000e+00 7.893514e-42
-5.430000e+00 8.812766e-42
-5.420000e+00 9.601697e-42
-5.410000e+00 1.018604e-41
-5.400000e+00 1.050553e-41
-5.390000e+00 1.048872e-41
-5.380000e+00 1.007534e-41
-5.370000e+00 9.178505e-42
-5.360000e+00 7.764595e-42
-5.350000e+00 5.794369e-42
-5.340000e+00 3.186553e-42
-5.330000e+00 -5.044674e-44
-5.320000e+00 -3.901215e-42
-5.310000e+00 -8.346134e-42
-5.300000e+00 -1.334176e-41
-5.290000e+00 -1.878020e-41
-5.280000e+00 -2.454514e-41
-5.270000e+00 -3.047824e-41
-5.260000e+00 -3.634828e-41
-5.250000e+00 -4.191844e-41
-5.240000e+00 -4.690426e-41
-5.230000e+00 -5.102128e-41
-5.220000e+00 -5.389254e-41
-5.210000e+00 -5.520275e-41
-5.200000e+00 -5.454414e-41
-5.190000e+00 -5.159020e-41
-5.180000e+00 -4.605508e-41
-5.170000e+00 -3.762066e-41
-5.160000e+00 -2.608377e-41
-5.150000e+00 -1.135192e-41
-5.140000e+00 6.572090e-42
-5.130000e+00 2.757896e-41
-5.120000e+00 5.134638e-41
-5.110000e+00 7.743715e-41
-5.100000e+00 1.051815e-40
-5.090000e+00 1.337119e-40
-5.080000e+00 1.620321e-40
-5.070000e+00 1.888348e-40
-5.060000e+00 2.127101e-40
-5.050000e+00 2.320985e-40
-5.040000e+00 2.453337e-40
-5.030000e+00 2.506811e-40
-5.020000e+00 2.464043e-40
-5.010000e+00 2.309102e-40
-5.000000e+00 2.027581e-40
-4.990000e+00 1.607864e-40
-4.980000e+00 1.042650e-40
-4.970000e+00 3.293051e-41
-4.960000e+00 -5.284717e-41
-4.950000e+00 -1.519918e-40
-4.940000e+00 -2.625459e-40
-4.930000e+00 -3.817361e-40
-4.920000e+00 -5.058239e-40
-4.910000e+00 -6.301443e-40
-4.900000e+00 -7.490585e-40
-4.890000e+00 -8.561779e-40
-4.880000e+00 -9.443084e-40
-4.870000e+00 -1.005867e-39
-4.860000e+00 -1.032928e-39
-4.850000e+00 -1.017728e-39
-4.840000e+00 -9.529278e-40
-4.830000e+00 -8.321120e-40
-4.820000e+00 -6.503230e-40
-4.810000e+00 -4.044862e-40
-4.800000e+00 -9.403974e-41
-4.790000e+00 2.786020e-40
-4.780000e+00 7.074806e-40
-4.770000e+00 1.182732e-39
-4.760000e+00 1.690221e-39
-4.750000e+00 2.211423e-39
-4.740000e+00 2.723320e-39
-4.730000e+00 3.198751e-39
-4.720000e+00 3.606798e-39
-4.710000e+00 3.913591e-39
-4.700000e+00 4.083356e-39
-4.690000e+00 4.079813e-39
-4.680000e+00 3.867948e-39
-4.670000e+00 3.415961e-39
-4.660000e+00 2.697600e-39
-4.650000e+00 1.694628e-39
-4.640000e+00 3.995564e-40
-4.630000e+00 -1.181792e-39
-4.620000e+00 -3.027613e-39
-4.610000e+00 -5.097823e-39
-4.600000e+00 -7.332140e-39
-4.590000e+00 -9.648757e-39
-4.580000e+00 -1.194379e-38
-4.570000e+00 -1.409178e-38
-4.560000e+00 -1.594737e-38
-4.550000e+00 -1.734829e-38
-4.540000e+00 -1.812001e-38
-4.530000e+00 -1.808185e-38
-4.520000e+00 -1.705487e-38
-4.510000e+00 -1.487140e-38
-4.500000e+00 -1.138610e-38
-4.490000e+00 -6.488320e-39
-4.480000e+00 -1.155357e-40
-4.470000e+00 7.732697e-39
-4.460000e+00 1.698083e-38
-4.450000e+00 2.746404e-38
-4.440000e+00 3.891654e-38
-4.430000e+00 5.096219e-38
-4.420000e+00 6.310873e-38
-4.410000e+00 7.474631e-38
-4.400000e+00 8.515178e-38
-4.390000e+00 9.349912e-38
-4.380000e+00 9.887775e-38
-4.370000e+00 1.003191e-37
-4.360000e+00 9.683170e-38
-4.350000e+00 8.744472e-38
-4.340000e+00 7.126210e-38
-4.330000e+00 4.752249e-38
-4.320000e+00 1.566791e-38
-4.310000e+00 -2.458297e-38
-4.300000e+00 -7.315911e-38
-4.290000e+00 -1.295608e-37
-4.280000e+00 -1.927884e-37
-4.270000e+00 -2.612778e-37
-4.260000e+00 -3.328512e-37
-4.250000e+00 -4.046842e-37
-4.240000e+00 -4.732978e-37
-4.230000e+00 -5.345813e-37
-4.220000e+00 -5.838469e-37
-4.210000e+00 -6.159277e-37
-4.200000e+00 -6.253184e-37
-4.190000e+00 -6.063609e-37
-4.180000e+00 -5.534820e-37
-4.170000e+00 -4.614748e-37
-4.160000e+00 -3.258268e-37
-4.150000e+00 -1.430854e-37
-4.140000e+00 8.874651e-38
-4.130000e+00 3.697978e-37
-4.120000e+00 6.979137e-37
-4.110000e+00 1.068257e-36
-4.100000e+00 1.472951e-36
-4.090000e+00 1.900779e-36
-4.080000e+00 2.336983e-36
-4.070000e+00 2.763181e-36
-4.060000e+00 3.157422e-36
-4.050000e+00 3.494435e-36
-4.040000e+00 3.746065e-36
-4.030000e+00 3.881953e-36
-4.020000e+00 3.870433e-36
-4.010000e+00 3.679717e-36
-4.000000e+00 3.279284e-36
-3.990000e+00 2.641551e-36
-3.980000e+00 1.743737e-36
-3.970000e+00 5.699053e-37
-3.960000e+00 -8.868809e-37
-3.950000e+00 -2.622349e-36
-3.940000e+00 -4.618858e-36
-3.930000e+00 -6.843385e-36
-3.920000e+00 -9.245789e-36
-3.910000e+00 -1.175747e-35
-3.900000e+00 -1.429058e-35
-3.890000e+00 -1.673794e-35
-3.880000e+00 -1.897373e-35
-3.870000e+00 -2.085524e-35
-3.860000e+00 -2.222567e-35
-3.850000e+00 -2.291804e-35
-3.840000e+00 -2.276057e-35
-3.830000e+00 -2.158308e-35
-3.820000e+00 -1.922476e-35
-3.810000e+00 -1.554313e-35
-3.800000e+00 -1.042388e-35
-3.790000e+00 -3.791527e-36
-3.780000e+00 4.379483e-36
-3.770000e+00 1.405367e-35
-3.760000e+00 2.512377e-35
-3.750000e+00 3.740107e-35
-3.740000e+00 5.060726e-35
-3.730000e+00 6.436847e-35
-3.720000e+00 7.821245e-35
-3.710000e+00 9.156912e-35
-3.700000e+00 1.037758e-34
-3.690000e+00 1.140868e-34
-3.680000e+00 1.216893e-34
-3.670000e+00 1.257241e-34
-3.660000e+00 1.253138e-34
-3.650000e+00 1.195949e-34
-3.640000e+00 1.077585e-34
-3.630000e+00 8.909393e-35
-3.620000e+00 6.303797e-35
-3.610000e+00 2.922672e-35
-3.600000e+00 -1.245057e-35
-3.590000e+00 -6.179857e-35
-3.580000e+00 -1.182652e-34
-3.570000e+00 -1.808968e-34
-3.560000e+00 -2.483013e-34
-3.550000e+00 -3.186229e-34
-3.540000e+00 -3.895310e-34
-3.530000e+00 -4.582274e-34
-3.520000e+00 -5.214738e-34
-3.510000e+00 -5.756425e-34
-3.500000e+00 -6.167937e-34
-3.490000e+00 -6.407792e-34
-3.480000e+00 -6.433735e-34
-3.470000e+00 -6.204330e-34
-3.460000e+00 -5.680824e-34
-3.450000e+00 -4.829218e-34
-3.440000e+00 -3.622541e-34
-3.430000e+00 -2.043240e-34
-3.420000e+00 -8.563602e-36
-3.410000e+00 2.241665e-34
-3.400000e+00 4.913515e-34
-3.390000e+00 7.886223e-34
-3.380000e+00 1.109595e-33
-3.370000e+00 1.445761e-33
-3.360000e+00 1.786452e-33
-3.350000e+00 2.118870e-33
-3.340000e+00 2.428235e-33
-3.330000e+00 2.698003e-33
-3.320000e+00 2.910234e-33
-3.310000e+00 3.046053e-33
-3.300000e+00 3.086233e-33
-3.290000e+00 3.011928e-33
-3.280000e+00 2.805465e-33
-3.270000e+00 2.451272e-33
-3.260000e+00 1.936882e-33
-3.250000e+00 1.253956e-33
-3.240000e+00 3.993650e-34
-3.230000e+00 -6.237843e-34
-3.220000e+00 -1.805175e-33
-3.210000e+00 -3.126418e-33
-3.200000e+00 -4.560389e-33
-3.190000e+00 -6.070761e-33
-3.180000e+00 -7.611849e-33
-3.170000e+00 -9.128805e-33
-3.160000e+00 -1.055813e-32
-3.150000e+00 -1.182880e-32
-3.140000e+00 -1.286364e-32
-3.130000e+00 -1.358136e-32
-3.120000e+00 -1.389907e-32
-3.110000e+00 -1.373515e-32
-3.100000e+00 -1.301278e-32
-3.090000e+00 -1.166372e-32
-3.080000e+00 -9.632391e-33
-3.070000e+00 -6.880246e-33
-3.060000e+00 -3.390142e-33
-3.050000e+00 8.293784e-34
-3.040000e+00 5.740093e-33
-3.030000e+00 1.127058e-32
-3.020000e+00 1.731343e-32
-3.010000e+00 2.372338e-32
-3.000000e+00 3.031660e-32
-2.990000e+00 3.687136e-32
-2.980000e+00 4.313033e-32
-2.970000e+00 4.880458e-32
-2.960000e+00 5.357939e-32
-2.950000e+00 5.712224e-32
-2.940000e+00 5.909271e-32
-2.930000e+00 5.915394e-32
-2.920000e+00 5.698637e-32
-2.910000e+00 5.230306e-32
-2.900000e+00 4.486540e-32
-2.890000e+00 3.450077e-32
-2.880000e+00 2.111945e-32
-2.870000e+00 4.731707e-33
-2.860000e+00 -1.453642e-32
-2.850000e+00 -3.642915e-32
-2.840000e+00 -6.054978e-32
-2.830000e+00 -8.635297e-32
-2.820000e+00 -1.131415e-31
-2.810000e+00 -1.400687e-31
-2.800000e+00 -1.661457e-31
-2.790000e+00 -1.902572e-31
-2.780000e+00 -2.111825e-31
-2.770000e+00 -2.276257e-31
-2.760000e+00 -2.382517e-31
-2.750000e+00 -2.417307e-31
-2.740000e+00 -2.367897e-31
-2.730000e+00 -2.222677e-31
-2.720000e+00 -1.971788e-31
-2.710000e+00 -1.607756e-31
-2.700000e+00 -1.126148e-31
-2.690000e+00 -5.262175e-32
-2.680000e+00 1.884975e-32
-2.670000e+00 1.009633e-31
-2.660000e+00 1.923561e-31
-2.650000e+00 2.911084e-31
-2.640000e+00 3.947285e-31
-2.630000e+00 5.001554e-31
-2.620000e+00 6.037890e-31
-2.610000e+00 7.015347e-31
-2.600000e+00 7.888840e-31
-2.590000e+00 8.610157e-31
-2.580000e+00 9.129281e-31
-2.570000e+00 9.395927e-31
-2.560000e+00 9.361411e-31
-2.550000e+00 8.980640e-31
-2.540000e+00 8.214342e-31
-2.530000e+00 7.031393e-31
-2.520000e+00 5.411189e-31
-2.510000e+00 3.345980e-31
-2.500000e+00 8.431117e-32
-2.490000e+00 -2.073000e-31
-2.480000e+00 -5.359191e-31
-2.470000e+00 -8.952316e-31
-2.460000e+00 -1.276861e-30
-2.450000e+00 -1.670360e-30
-2.440000e+00 -2.063294e-30
-2.430000e+00 -2.441386e-30
-2.420000e+00 -2.788779e-30
-2.410000e+00 -3.088365e-30
-2.400000e+00 -3.322228e-30
-2.390000e+00 -3.472173e-30
-2.380000e+00 -3.520350e-30
-2.370000e+00 -3.449941e-30
-2.360000e+00 -3.245931e-30
-2.350000e+00 -2.895898e-30
-2.340000e+00 -2.390849e-30
-2.330000e+00 -1.726044e-30
-2.320000e+00 -9.017804e-31
-2.310000e+00 7.589747e-32
-2.300000e+00 1.194570e-30
-2.290000e+00 2.434983e-30
-2.280000e+00 3.770753e-30
-2.270000e+00 5.168279e-30
-2.260000e+00 6.586939e-30
-2.250000e+00 7.979500e-30
-2.240000e+00 9.292902e-30
-2.230000e+00 1.046931e-29
-2.220000e+00 1.144748e-29
-2.210000e+00 1.216448e-29
-2.200000e+00 1.255770e-29
-2.190000e+00 1.256708e-29
-2.180000e+00 1.213762e-29
-2.170000e+00 1.122212e-29
-2.160000e+00 9.783809e-30
-2.150000e+00 7.799193e-30
-2.140000e+00 5.260730e-30
-2.130000e+00 2.179301e-30
-2.120000e+00 -1.413602e-30
-2.110000e+00 -5.464139e-30
-2.100000e+00 -9.894922e-30
-2.090000e+00 -1.460449e-29
-2.080000e+00 -1.946756e-29
-2.070000e+00 -2.433616e-29
-2.060000e+00 -2.904170e-29
-2.050000e+00 -3.339811e-29
-2.040000e+00 -3.720593e-29
-2.030000e+00 -4.025742e-29
-2.020000e+00 -4.234283e-29
-2.010000e+00 -4.325737e-29
-2.000000e+00 -4.280910e-29
-1.990000e+00 -4.082726e-29
-1.980000e+00 -3.717117e-29
-1.970000e+00 -3.173918e-29
-1.960000e+00 -2.447743e-29
-1.950000e+00 -1.538811e-29
-1.940000e+00 -4.536905e-30
-1.930000e+00 7.940817e-30
-1.920000e+00 2.183538e-29
-1.910000e+00 3.686026e-29
-1.900000e+00 5.265168e-29
-1.890000e+00 6.877126e-29
-1.880000e+00 8.471086e-29
-1.870000e+00 9.990126e-29
-1.860000e+00 1.137239e-28
-1.850000e+00 1.255253e-28
-1.840000e+00 1.346351e-28
-1.830000e+00 1.403876e-28
-1.820000e+00 1.421442e-28
-1.810000e+00 1.393195e-28
-1.800000e+00 1.314086e-28
-1.790000e+00 1.180141e-28
-1.780000e+00 9.887418e-29
-1.770000e+00 7.388907e-29
-1.760000e+00 4.314518e-29
-1.750000e+00 6.936181e-30
-1.740000e+00 -3.422039e-29
-1.730000e+00 -7.957216e-29
-1.720000e+00 -1.281275e-28
-1.710000e+00 -1.786589e-28
-1.700000e+00 -2.297144e-28
-1.690000e+00 -2.796393e-28
-1.680000e+00 -3.266056e-28
-1.670000e+00 -3.686528e-28
-1.660000e+00 -4.037387e-28
-1.650000e+00 -4.297961e-28
-1.640000e+00 -4.448021e-28
-1.630000e+00 -4.468508e-28
-1.620000e+00 -4.342335e-28
-1.610000e+00 -4.055201e-28
-1.600000e+00 -3.596439e-28
-1.590000e+00 -2.959813e-28
-1.580000e+00 -2.144293e-28
-1.570000e+00 -1.154726e-28
-1.560000e+00 -2.412302e-31
-1.550000e+00 1.294480e-28
-1.540000e+00 2.710683e-28
-1.530000e+00 4.213794e-28
-1.520000e+00 5.764497e-28
-1.510000e+00 7.317020e-28
-1.500000e+00 8.819899e-28
-1.490000e+00 1.021698e-27
-1.480000e+00 1.144876e-27
-1.470000e+00 1.245395e-27
-1.460000e+00 1.317130e-27
-1.450000e+00 1.354170e-27
-1.440000e+00 1.351034e-27
-1.430000e+00 1.302916e-27
-1.420000e+00 1.205915e-27
-1.410000e+00 1.057285e-27
-1.400000e+00 8.556608e-28
-1.390000e+00 6.012698e-28
-1.380000e+00 2.961157e-28
-1.370000e+00 -5.587327e-29
-1.360000e+00 -4.487468e-28
-1.350000e+00 -8.744875e-28
-1.340000e+00 -1.323031e-27
-1.330000e+00 -1.782351e-27
-1.320000e+00 -2.238634e-27
-1.310000e+00 -2.676515e-27
-1.300000e+00 -3.079410e-27
-1.290000e+00 -3.429908e-27
-1.280000e+00 -3.710263e-27
-1.270000e+00 -3.902923e-27
-1.260000e+00 -3.991155e-27
-1.250000e+00 -3.959656e-27
-1.240000e+00 -3.795270e-27
-1.230000e+00 -3.487631e-27
-1.220000e+00 -3.029850e-27
-1.210000e+00 -2.419145e-27
-1.200000e+00 -1.657406e-27
-1.190000e+00 -7.516794e-28
-1.180000e+00 2.854663e-28
-1.170000e+00 1.435714e-27
-1.160000e+00 2.674924e-27
-1.150000e+00 3.973262e-27
-1.140000e+00 5.295502e-27
-1.130000e+00 6.601563e-27
-1.120000e+00 7.847260e-27
-1.110000e+00 8.985254e-27
-1.100000e+00 9.966261e-27
-1.090000e+00 1.074038e-26
-1.080000e+00 1.125871e-26
-1.070000e+00 1.147497e-26
-1.060000e+00 1.134737e-26
-1.050000e+00 1.084041e-26
-1.040000e+00 9.926764e-27
-1.030000e+00 8.589132e-27
-1.020000e+00 6.821832e-27
-1.010000e+00 4.632378e-27
-1.000000e+00 2.042671e-27
-9.900002e-01 -9.100594e-28
-9.800000e-01 -4.172758e-27
-9.700003e-01 -7.676463e-27
-9.600000e-01 -1.133675e-26
-9.500003e-01 -1.505469e-26
-9.400001e-01 -1.871846e-26
-9.300003e-01 -2.220539e-26
-9.200001e-01 -2.538478e-26
-9.100003e-01 -2.812109e-26
-9.000001e-01 -3.027784e-26
-8.900003e-01 -3.172170e-26
-8.800001e-01 -3.232713e-26
-8.700004e-01 -3.198133e-26
-8.600001e-01 -3.058902e-26
-8.500004e-01 -2.807757e-26
-8.400002e-01 -2.440155e-26
-8.299999e-01 -1.954739e-26
-8.200002e-01 -1.353699e-26
-8.099999e-01 -6.431098e-27
-8.000002e-01 1.668533e-27
-7.900000e-01 1.061786e-26
-7.800002e-01 2.023054e-26
-7.700000e-01 3.027924e-26
-7.600002e-01 4.049836e-26
-7.500000e-01 5.058821e-26
-7.400002e-01 6.022082e-26
-7.300000e-01 6.904718e-26
-7.200003e-01 7.670570e-26
-7.100000e-01 8.283247e-26
-7.000003e-01 8.707201e-26
-6.900001e-01 8.908941e-26
-6.800003e-01 8.858294e-26
-6.700001e-01 8.529672e-26
-6.600003e-01 7.903363e-26
-6.500001e-01 6.966726e-26
-6.400003e-01 5.715379e-26
-6.300001e-01 4.154134e-26
-6.200004e-01 2.297829e-26
-6.100001e-01 1.719275e-27
-6.000004e-01 -2.187191e-26
-5.900002e-01 -4.732204e-26
-5.800004e-01 -7.405180e-26
-5.700002e-01 -1.013825e-25
-5.599999e-01 -1.285469e-25
-5.500002e-01 -1.547032e-25
-5.400000e-01 -1.789535e-25
-5.300002e-01 -2.003652e-25
-5.200000e-01 -2.179963e-25
-5.100002e-01 -2.309219e-25
-5.000000e-01 -2.382659e-25
-4.900002e-01 -2.392309e-25
-4.800000e-01 -2.331310e-25
-4.700003e-01 -2.194231e-25
-4.600000e-01 -1.977388e-25
-4.500003e-01 -1.679113e-25
-4.400001e-01 -1.300019e-25
-4.300003e-01 -8.432001e-26
-4.200001e-01 -3.143895e-26
-4.100003e-01 2.779580e-26
-4.000001e-01 9.226480e-26
-3.900003e-01 1.605812e-25
-3.800001e-01 2.311063e-25
-3.700004e-01 3.019731e-25
-3.600001e-01 3.711211e-25
-3.500004e-01 4.363375e-25
-3.400002e-01 4.953089e-25
-3.300004e-01 5.456801e-25
-3.200002e-01 5.851202e-25
-3.099999e-01 6.113936e-25
-3.000002e-01 6.224353e-25
-2.900000e-01 6.164286e-25
-2.800002e-01 5.918815e-25
-2.700000e-01 5.477029e-25
-2.600002e-01 4.832712e-25
-2.500000e-01 3.984984e-25
-2.400002e-01 2.938811e-25
-2.300000e-01 1.705426e-25
-2.200003e-01 3.025818e-26
-2.100000e-01 -1.245359e-25
-2.000003e-01 -2.907522e-25
-1.900001e-01 -4.646810e-25
-1.800003e-01 -6.420408e-25
-1.700001e-01 -8.180507e-25
-1.600003e-01 -9.875217e-25
-1.500001e-01 -1.144970e-24
-1.400003e-01 -1.284752e-24
-1.300001e-01 -1.401204e-24
-1.200004e-01 -1.488817e-24
-1.100001e-01 -1.542396e-24
-1.000004e-01 -1.557247e-24
-9.000015e-02 -1.529353e-24
-8.000040e-02 -1.455553e-24
-7.000017e-02 -1.333706e-24
-5.999994e-02 -1.162845e-24
-5.000019e-02 -9.433082e-25
-3.999996e-02 -6.768495e-25
-3.000021e-02 -3.667074e-25
-1.999998e-02 -1.764892e-26
-1.000023e-02 3.640327e-25
0.000000e+00 7.705637e-25
1.000023e-02 1.192777e-24
1.999950e-02 1.620255e-24
2.999973e-02 2.041509e-24
3.999996e-02 2.444215e-24
5.000019e-02 2.815483e-24
5.999947e-02 3.142174e-24
6.999969e-02 3.411251e-24
7.999992e-02 3.610139e-24
9.000015e-02 3.727136e-24
9.999943e-02 3.751786e-24
1.099997e-01 3.675306e-24
1.199999e-01 3.490951e-24
1.300001e-01 3.194379e-24
1.399994e-01 2.783976e-24
1.499996e-01 2.261120e-24
1.599998e-01 1.630403e-24
1.700001e-01 8.997637e-25
1.799994e-01 8.054733e-26
1.899996e-01 -8.125191e-25
1.999998e-01 -1.761461e-24
2.100000e-01 -2.745272e-24
2.200003e-01 -3.740247e-24
2.299995e-01 -4.720409e-24
2.399998e-01 -5.658020e-24
2.500000e-01 -6.524200e-24
2.600002e-01 -7.289618e-24
2.699995e-01 -7.925247e-24
2.799997e-01 -8.403152e-24
2.900000e-01 -8.697370e-24
3.000002e-01 -8.784701e-24
3.099995e-01 -8.645616e-24
3.199997e-01 -8.265012e-24
3.299999e-01 -7.632994e-24
3.400002e-01 -6.745525e-24
3.499994e-01 -5.605006e-24
3.599997e-01 -4.220695e-24
3.699999e-01 -2.609001e-24
3.800001e-01 -7.936063e-25
3.899994e-01 1.194607e-24
3.999996e-01 3.317812e-24
4.099998e-01 5.531694e-24
4.200001e-01 7.786108e-24
4.299994e-01 1.002597e-23
4.399996e-01 1.219226e-23
4.499998e-01 1.422328e-23
4.600000e-01 1.605606e-23
4.700003e-01 1.762782e-23
4.799995e-01 1.887766e-23
4.899998e-01 1.974818e-23
5.000000e-01 2.018725e-23
5.100002e-01 2.014962e-23
5.199995e-01 1.959868e-23
5.299997e-01 1.850791e-23
5.400000e-01 1.686232e-23
5.500002e-01 1.465957e-23
5.599995e-01 1.191100e-23
5.699997e-01 8.642293e-24
5.799999e-01 4.893830e-24
5.900002e-01 7.207533e-25
5.999994e-01 -3.807387e-24
6.099997e-01 -8.607297e-24
6.199999e-01 -1.358301e-23
6.300001e-01 -1.862738e-23
6.399994e-01 -2.362380e-23
6.499996e-01 -2.844842e-23
6.599998e-01 -3.297260e-23
6.700001e-01 -3.706551e-23
6.799994e-01 -4.059725e-23
6.899996e-01 -4.344177e-23
6.999998e-01 -4.548010e-23
7.100000e-01 -4.660364e-23
7.200003e-01 -4.671724e-23
7.299995e-01 -4.574222e-23
7.399998e-01 -4.361926e-23
7.500000e-01 -4.031104e-23
7.600002e-01 -3.580433e-23
7.699995e-01 -3.011189e-23
7.799997e-01 -2.327384e-23
7.900000e-01 -1.535842e-23
8.000002e-01 -6.462358e-24
8.099995e-01 3.289539e-24
8.199997e-01 1.374522e-23
8.299999e-01 2.472712e-23
8.400002e-01 3.603411e-23
8.499994e-01 4.744448e-23
8.599997e-01 5.871902e-23
8.699999e-01 6.960526e-23
8.800001e-01 7.984128e-23
8.899994e-01 8.916088e-23
8.999996e-01 9.729824e-23
9.099998e-01 1.039937e-22
9.200001e-01 1.089985e-22
9.299994e-01 1.120810e-22
9.399996e-01 1.130315e-22
9.499998e-01 1.116680e-22
9.600000e-01 1.078414e-22
9.700003e-01 1.014393e-22
9.799995e-01 9.239196e-23
9.899998e-01 8.067467e-23
1.000000e+00 6.631193e-23
1.010000e+00 4.937993e-23
1.020000e+00 3.000843e-23
1.030000e+00 8.382076e-24
1.040000e+00 -1.525911e-23
1.050000e+00 -4.062016e-23
1.059999e+00 -6.735241e-23
1.070000e+00 -9.505554e-23
1.080000e+00 -1.232804e-22
1.090000e+00 -1.515333e-22
1.099999e+00 -1.792802e-22
1.110000e+00 -2.059529e-22
1.120000e+00 -2.309553e-22
1.130000e+00 -2.536708e-22
1.139999e+00 -2.734706e-22
1.150000e+00 -2.897228e-22
1.160000e+00 -3.018027e-22
1.170000e+00 -3.091027e-22
1.179999e+00 -3.110442e-22
1.190000e+00 -3.070899e-22
1.200000e+00 -2.967557e-22
1.210000e+00 -2.796248e-22
1.220000e+00 -2.553603e-22
1.230000e+00 -2.237193e-22
1.240000e+00 -1.845668e-22
1.250000e+00 -1.378896e-22
1.260000e+00 -8.380842e-23
1.270000e+00 -2.259194e-23
1.280000e+00 4.533266e-23
1.290000e+00 1.193690e-22
1.300000e+00 1.987432e-22
1.309999e+00 2.824967e-22
1.320000e+00 3.694835e-22
1.330000e+00 4.583682e-22
1.340000e+00 5.476298e-22
1.349999e+00 6.355663e-22
1.360000e+00 7.203080e-22
1.370000e+00 7.998319e-22
1.380000e+00 8.719810e-22
1.389999e+00 9.344964e-22
1.400000e+00 9.850414e-22
1.410000e+00 1.021246e-21
1.420000e+00 1.040747e-21
1.429999e+00 1.041240e-21
1.440000e+00 1.020532e-21
1.450000e+00 9.766033e-22
1.460000e+00 9.076689e-22
1.469999e+00 8.122486e-22
1.480000e+00 6.892350e-22
1.490000e+00 5.379640e-22
1.500000e+00 3.582856e-22
1.510000e+00 1.506308e-22
1.520000e+00 -8.392400e-23
1.530000e+00 -3.436004e-22
1.540000e+00 -6.258694e-22
1.550000e+00 -9.274107e-22
1.559999e+00 -1.244091e-21
1.570000e+00 -1.570952e-21
1.580000e+00 -1.902216e-21
1.590000e+00 -2.231318e-21
1.599999e+00 -2.550948e-21
1.610000e+00 -2.853126e-21
1.620000e+00 -3.129302e-21
1.630000e+00 -3.370466e-21
1.639999e+00 -3.567310e-21
1.650000e+00 -3.710382e-21
1.660000e+00 -3.790298e-21
1.670000e+00 -3.797951e-21
1.679999e+00 -3.724749e-21
1.690000e+00 -3.562880e-21
1.700000e+00 -3.305578e-21
1.710000e+00 -2.947388e-21
1.719999e+00 -2.484464e-21
1.730000e+00 -1.914832e-21
1.740000e+00 -1.238664e-21
1.750000e+00 -4.585223e-22
1.760000e+00 4.204163e-22
1.770000e+00 1.390175e-21
1.780000e+00 2.439833e-21
1.790000e+00 3.555423e-21
1.800000e+00 4.719910e-21
1.809999e+00 5.913212e-21
1.820000e+00 7.112307e-21
1.830000e+00 8.291435e-21
1.840000e+00 9.422335e-21
1.849999e+00 1.047465e-20
1.860000e+00 1.141633e-20
1.870000e+00 1.221419e-20
1.880000e+00 1.283456e-20
1.889999e+00 1.324393e-20
1.900000e+00 1.340978e-20
1.910000e+00 1.330143e-20
1.920000e+00 1.289089e-20
1.929999e+00 1.215384e-20
1.940000e+00 1.107056e-20
1.950000e+00 9.626881e-21
1.960000e+00 7.815158e-21
1.969999e+00 5.635087e-21
1.980000e+00 3.094568e-21
1.990000e+00 2.103822e-22
2.000000e+00 -2.991193e-21
2.010000e+00 -6.473969e-21
2.020000e+00 -1.019160e-20
2.030000e+00 -1.408751e-20
2.040000e+00 -1.809510e-20
2.050000e+00 -2.213815e-20
2.059999e+00 -2.613157e-20
2.070000e+00 -2.998226e-20
2.080000e+00 -3.359049e-20
2.090000e+00 -3.685130e-20
2.099999e+00 -3.965642e-20
2.110000e+00 -4.189634e-20
2.120000e+00 -4.346249e-20
2.130000e+00 -4.424996e-20
2.139999e+00 -4.416019e-20
2.150000e+00 -4.310371e-20
2.160000e+00 -4.100320e-20
2.170000e+00 -3.779633e-20
2.179999e+00 -3.343899e-20
2.190000e+00 -2.790773e-20
2.200000e+00 -2.120266e-20
2.210000e+00 -1.334980e-20
2.219999e+00 -4.403070e-21
2.230000e+00 5.554019e-21
2.240000e+00 1.640731e-20
2.250000e+00 2.801136e-20
2.260000e+00 4.018975e-20
2.270000e+00 5.273548e-20
2.280000e+00 6.541315e-20
2.290000e+00 7.796060e-20
2.300000e+00 9.009258e-20
2.309999e+00 1.015049e-19
2.320000e+00 1.118784e-19
2.330000e+00 1.208859e-19
2.340000e+00 1.281975e-19
2.349999e+00 1.334878e-19
2.360000e+00 1.364440e-19
2.370000e+00 1.367735e-19
2.380000e+00 1.342127e-19
2.389999e+00 1.285348e-19
2.400000e+00 1.195596e-19
2.410000e+00 1.071607e-19
2.420000e+00 9.127391e-20
2.429999e+00 7.190476e-20
2.440000e+00 4.913461e-20
2.450000e+00 2.312628e-20
2.460000e+00 -5.871847e-21
2.469999e+00 -3.752327e-20
2.480000e+00 -7.140242e-20
2.490000e+00 -1.069955e-19
2.500000e+00 -1.437039e-19
2.510000e+00 -1.808484e-19
2.520000e+00 -2.176778e-19
2.530000e+00 -2.533773e-19
2.540000e+00 -2.870811e-19
2.550000e+00 -3.178864e-19
2.559999e+00 -3.448691e-19
2.570000e+00 -3.671029e-19
2.580000e+00 -3.836776e-19
2.590000e+00 -3.937216e-19
2.599999e+00 -3.964239e-19
2.610000e+00 -3.910561e-19
2.620000e+00 -3.769971e-19
2.630000e+00 -3.537542e-19
2.639999e+00 -3.209873e-19
2.650000e+00 -2.785277e-19
2.660000e+00 -2.263984e-19
2.670000e+00 -1.648300e-19
2.679999e+00 -9.427346e-20
2.690000e+00 -1.541104e-20
2.700000e+00 7.083915e-20
2.710000e+00 1.633216e-19
2.719999e+00 2.606478e-19
2.730000e+00 3.612052e-19
2.740000e+00 4.631731e-19
2.750000e+00 5.645421e-19
2.760000e+00 6.631424e-19
2.770000e+00 7.566746e-19
2.780000e+00 8.427483e-19
2.790000e+00 9.189251e-19
2.800000e+00 9.827668e-19
2.809999e+00 1.031884e-18
2.820000e+00 1.063996e-18
2.830000e+00 1.076983e-18
2.840000e+00 1.068947e-18
2.849999e+00 1.038272e-18
2.860000e+00 9.836745e-19
2.870000e+00 9.042685e-19
2.880000e+00 7.996076e-19
2.889999e+00 6.697360e-19
2.900000e+00 5.152250e-19
2.910000e+00 3.372058e-19
2.920000e+00 1.373909e-19
2.929999e+00 -8.191475e-20
2.940000e+00 -3.178143e-19
2.950000e+00 -5.668306e-19
2.960000e+00 -8.249341e-19
2.969999e+00 -1.087580e-18
2.980000e+00 -1.349764e-18
2.990000e+00 -1.606089e-18
3.000000e+00 -1.850847e-18
3.010000e+00 -2.078109e-18
3.020000e+00 -2.281838e-18
3.030000e+00 -2.456002e-18
3.040000e+00 -2.594692e-18