-8.000000e+00 0.000000e+00
-7.990000e+00 0.000000e+00
-7.980000e+00 0.000000e+00
-7.970000e+00 0.000000e+00
-7.960000e+00 0.000000e+00
-7.950000e+00 0.000000e+00
-7.940000e+00 0.000000e+00
-7.930000e+00 0.000000e+00
-7.920000e+00 0.000000e+00
-7.910000e+00 0.000000e+00
-7.900000e+00 0.000000e+00
-7.890000e+00 0.000000e+00
-7.880000e+00 0.000000e+00
-7.870000e+00 0.000000e+00
-7.860000e+00 0.000000e+00
-7.850000e+00 0.000000e+00
-7.840000e+00 0.000000e+00
-7.830000e+00 0.000000e+00
-7.820000e+00 0.000000e+00
-7.810000e+00 0.000000e+00
-7.800000e+00 0.000000e+00
-7.790000e+00 0.000000e+00
-7.780000e+00 0.000000e+00
-7.770000e+00 0.000000e+00
-7.760000e+00 0.000000e+00
-7.750000e+00 0.000000e+00
-7.740000e+00 0.000000e+00
-7.730000e+00 0.000000e+00
-7.720000e+00 0.000000e+00
-7.710000e+00 0.000000e+00
-7.700000e+00 0.000000e+00
-7.690000e+00 0.000000e+00
-7.680000e+00 0.000000e+00
-7.670000e+00 0.000000e+00
-7.660000e+00 0.000000e+00
-7.650000e+00 0.000000e+00
-7.640000e+00 0.000000e+00
-7.630000e+00 0.000000e+00
-7.620000e+00 0.000000e+00
-7.610000e+00 0.000000e+00
-7.600000e+00 0.000000e+00
-7.590000e+00 0.000000e+00
-7.580000e+00 0.000000e+00
-7.570000e+00 0.000000e+00
-7.560000e+00 0.000000e+00
-7.550000e+00 0.000000e+00
-7.540000e+00 0.000000e+00
-7.530000e+00 0.000000e+00
-7.520000e+00 0.000000e+00
-7.510000e+00 0.000000e+00
-7.500000e+00 0.000000e+00
-7.490000e+00 0.000000e+00
-7.480000e+00 0.000000e+00
-7.470000e+00 0.000000e+00
-7.460000e+00 0.000000e+00
-7.450000e+00 0.000000e+00
-7.440000e+00 0.000000e+00
-7.430000e+00 0.000000e+00
-7.420000e+00 0.000000e+00
-7.410000e+00 0.000000e+00
-7.400000e+00 0.000000e+00
-7.390000e+00 0.000000e+00
-7.380000e+00 0.000000e+00
-7.370000e+00 0.000000e+00
-7.360000e+00 0.000000e+00
-7.350000e+00 0.000000e+00
-7.340000e+00 0.000000e+00
-7.330000e+00 0.000000e+00
-7.320000e+00 0.000000e+00
-7.310000e+00 0.000000e+00
-7.300000e+00 0.000000e+00
-7.290000e+00 0.000000e+00
-7.280000e+00 0.000000e+00
-7.270000e+00 0.000000e+00
-7.260000e+00 0.000000e+00
-7.250000e+00 0.000000e+00
-7.240000e+00 0.000000e+00
-7.230000e+00 0.000000e+00
-7.220000e+00 0.000000e+00
-7.210000e+00 0.000000e+00
-7.200000e+00 0.000000e+00
-7.190000e+00 0.000000e+00
-7.180000e+00 0.000000e+00
-7.170000e+00 0.000000e+00
-7.160000e+00 0.000000e+00
-7.150000e+00 0.000000e+00
-7.140000e+00 0.000000e+00
-7.130000e+00 0.000000e+00
-7.120000e+00 0.000000e+00
-7.110000e+00 0.000000e+00
-7.100000e+00 0.000000e+00
-7.090000e+00 0.000000e+00
-7.080000e+00 0.000000e+00
-7.070000e+00 0.000000e+00
-7.060000e+00 0.000000e+00
-7.050000e+00 0.000000e+00
-7.040000e+00 0.000000e+00
-7.030000e+00 0.000000e+00
-7.020000e+00 0.000000e+00
-7.010000e+00 0.000000e+00
-7.000000e+00 0.000000e+00
-6.990000e+00 0.000000e+00
-6.980000e+00 0.000000e+00
-6.970000e+00 0.000000e+00
-6.960000e+00 0.000000e+00
-6.950000e+00 0.000000e+00
-6.940000e+00 0.000000e+00
-6.930000e+00 0.000000e+00
-6.920000e+00 0.000000e+00
-6.910000e+00 0.000000e+00
-6.900000e+00 0.000000e+00
-6.890000e+00 0.000000e+00
-6.880000e+00 0.000000e+00
-6.870000e+00 0.000000e+00
-6.860000e+00 0.000000e+00
-6.850000e+00 0.000000e+00
-6.840000e+00 0.000000e+00
-6.830000e+00 0.000000e+00
-6.820000e+00 0.000000e+00
-6.810000e+00 0.000000e+00
-6.800000e+00 0.000000e+00
-6.790000e+00 0.000000e+00
-6.780000e+00 0.000000e+00
-6.770000e+00 0.000000e+00
-6.760000e+00 0.000000e+00
-6.750000e+00 0.000000e+00
-6.740000e+00 0.000000e+00
-6.730000e+00 0.000000e+00
-6.720000e+00 0.000000e+00
-6.710000e+00 0.000000e+00
-6.700000e+00 0.000000e+00
-6.690000e+00 0.000000e+00
-6.680000e+00 0.000000e+00
-6.670000e+00 0.000000e+00
-6.660000e+00 0.000000e+00
-6.650000e+00 0.000000e+00
-6.640000e+00 0.000000e+00
-6.630000e+00 0.000000e+00
-6.620000e+00 0.000000e+00
-6.610000e+00 0.000000e+00
-6.600000e+00 0.000000e+00
-6.590000e+00 0.000000e+00
-6.580000e+00 0.000000e+00
-6.570000e+00 0.000000e+00
-6.560000e+00 0.000000e+00
-6.550000e+00 0.000000e+00
-6.540000e+00 0.000000e+00
-6.530000e+00 0.000000e+00
-6.520000e+00 0.000000e+00
-6.510000e+00 0.000000e+00
-6.500000e+00 0.000000e+00
-6.490000e+00 0.000000e+00
-6.480000e+00 0.000000e+00
-6.470000e+00 0.000000e+00
-6.460000e+00 0.000000e+00
-6.450000e+00 0.000000e+00
-6.440000e+00 0.000000e+00
-6.430000e+00 0.000000e+00
-6.420000e+00 0.000000e+00
-6.410000e+00 0.000000e+00
-6.400000e+00 0.000000e+00
-6.390000e+00 0.000000e+00
-6.380000e+00 0.000000e+00
-6.370000e+00 0.000000e+00
-6.360000e+00 0.000000e+00
-6.350000e+00 0.000000e+00
-6.340000e+00 0.000000e+00
-6.330000e+00 0.000000e+00
-6.320000e+00 0.000000e+00
-6.310000e+00 0.000000e+00
-6.300000e+00 0.000000e+00
-6.290000e+00 0.000000e+00
-6.280000e+00 0.000000e+00
-6.270000e+00 0.000000e+00
-6.260000e+00 0.000000e+00
-6.250000e+00 0.000000e+00
-6.240000e+00 0.000000e+00
-6.230000e+00 0.000000e+00
-6.220000e+00 0.000000e+00
-6.210000e+00 0.000000e+00
-6.200000e+00 0.000000e+00
-6.190000e+00 0.000000e+00
-6.180000e+00 0.000000e+00
-6.170000e+00 0.000000e+00
-6.160000e+00 0.000000e+00
-6.150000e+00 0.000000e+00
-6.140000e+00 0.000000e+00
-6.130000e+00 0.000000e+00
-6.120000e+00 0.000000e+00
-6.110000e+00 0.000000e+00
-6.100000e+00 0.000000e+00
-6.090000e+00 0.000000e+00
-6.080000e+00 0.000000e+00
-6.070000e+00 0.000000e+00
-6.060000e+00 0.000000e+00
-6.050000e+00 0.000000e+00
-6.040000e+00 0.000000e+00
-6.030000e+00 0.000000e+00
-6.020000e+00 0.000000e+00
-6.010000e+00 0.000000e+00
-6.000000e+00 0.000000e+00
-5.990000e+00 0.000000e+00
-5.980000e+00 0.000000e+00
-5.970000e+00 0.000000e+00
-5.960000e+00 0.000000e+00
-5.950000e+00 0.000000e+00
-5.940000e+00 0.000000e+00
-5.930000e+00 0.000000e+00
-5.920000e+00 0.000000e+00
-5.910000e+00 0.000000e+00
-5.900000e+00 0.000000e+00
-5.890000e+00 0.000000e+00
-5.880000e+00 0.000000e+00
-5.870000e+00 0.000000e+00
-5.860000e+00 0.000000e+00
-5.850000e+00 0.000000e+00
-5.840000e+00 0.000000e+00
-5.830000e+00 0.000000e+00
-5.820000e+00 0.000000e+00
-5.810000e+00 0.000000e+00
-5.800000e+00 0.000000e+00
-5.790000e+00 0.000000e+00
-5.780000e+00 0.000000e+00
-5.770000e+00 0.000000e+00
-5.760000e+00 0.000000e+00
-5.750000e+00 0.000000e+00
-5.740000e+00 0.000000e+00
-5.730000e+00 0.000000e+00
-5.720000e+00 0.000000e+00
-5.710000e+00 0.000000e+00
-5.700000e+00 0.000000e+00
-5.690000e+00 0.000000e+00
-5.680000e+00 0.000000e+00
-5.670000e+00 0.000000e+00
-5.660000e+00 0.000000e+00
-5.650000e+00 0.000000e+00
-5.640000e+00 0.000000e+00
-5.630000e+00 0.000000e+00
-5.620000e+00 0.000000e+00
-5.610000e+00 0.000000e+00
-5.600000e+00 0.000000e+00
-5.590000e+00 0.000000e+00
-5.580000e+00 0.000000e+00
-5.570000e+00 0.000000e+00
-5.560000e+00 0.000000e+00
-5.550000e+00 0.000000e+00
-5.540000e+00 0.000000e+00
-5.530000e+00 0.000000e+00
-5.520000e+00 0.000000e+00
-5.510000e+00 0.000000e+00
-5.500000e+00 0.000000e+00
-5.490000e+00 0.000000e+00
-5.480000e+00 0.000000e+00
-5.470000e+00 0.000000e+00
-5.460000e+00 0.000000e+00
-5.450000e+00 0.000000e+00
-5.440000e+00 0.000000e+00
-5.430000e+00 0.000000e+00
-5.420000e+00 0.000000e+00
-5.410000e+00 0.000000e+00
-5.400000e+00 0.000000e+00
-5.390000e+00 0.000000e+00
-5.380000e+00 0.000000e+00
-5.370000e+00 0.000000e+00
-5.360000e+00 0.000000e+00
-5.350000e+00 0.000000e+00
-5.340000e+00 0.000000e+00
-5.330000e+00 0.000000e+00
-5.320000e+00 0.000000e+00
-5.310000e+00 0.000000e+00
-5.300000e+00 0.000000e+00
-5.290000e+00 0.000000e+00
-5.280000e+00 0.000000e+00
-5.270000e+00 0.000000e+00
-5.260000e+00 0.000000e+00
-5.250000e+00 0.000000e+00
-5.240000e+00 0.000000e+00
-5.230000e+00 0.000000e+00
-5.220000e+00 0.000000e+00
-5.210000e+00 0.000000e+00
-5.200000e+00 0.000000e+00
-5.190000e+00 0.000000e+00
-5.180000e+00 0.000000e+00
-5.170000e+00 0.000000e+00
-5.160000e+00 0.000000e+00
-5.150000e+00 0.000000e+00
-5.140000e+00 0.000000e+00
-5.130000e+00 0.000000e+00
-5.120000e+00 0.000000e+00
-5.110000e+00 0.000000e+00
-5.100000e+00 0.000000e+00
-5.090000e+00 0.000000e+00
-5.080000e+00 0.000000e+00
-5.070000e+00 0.000000e+00
-5.060000e+00 0.000000e+00
-5.050000e+00 0.000000e+00
-5.040000e+00 0.000000e+00
-5.030000e+00 0.000000e+00
-5.020000e+00 0.000000e+00
-5.010000e+00 0.000000e+00
-5.000000e+00 0.000000e+00
-4.990000e+00 0.000000e+00
-4.980000e+00 0.000000e+00
-4.970000e+00 0.000000e+00
-4.960000e+00 0.000000e+00
-4.950000e+00 0.000000e+00
-4.940000e+00 0.000000e+00
-4.930000e+00 0.000000e+00
-4.920000e+00 0.000000e+00
-4.910000e+00 0.000000e+00
-4.900000e+00 0.000000e+00
-4.890000e+00 0.000000e+00
-4.880000e+00 0.000000e+00
-4.870000e+00 0.000000e+00
-4.860000e+00 0.000000e+00
-4.850000e+00 0.000000e+00
-4.840000e+00 0.000000e+00
-4.830000e+00 0.000000e+00
-4.820000e+00 0.000000e+00
-4.810000e+00 0.000000e+00
-4.800000e+00 0.000000e+00
-4.790000e+00 0.000000e+00
-4.780000e+00 0.000000e+00
-4.770000e+00 0.000000e+00
-4.760000e+00 0.000000e+00
-4.750000e+00 0.000000e+00
-4.740000e+00 0.000000e+00
-4.730000e+00 0.000000e+00
-4.720000e+00 0.000000e+00
-4.710000e+00 0.000000e+00
-4.700000e+00 0.000000e+00
-4.690000e+00 0.000000e+00
-4.680000e+00 0.000000e+00
-4.670000e+00 0.000000e+00
-4.660000e+00 0.000000e+00
-4.650000e+00 0.000000e+00
-4.640000e+00 0.000000e+00
-4.630000e+00 0.000000e+00
-4.620000e+00 0.000000e+00
-4.610000e+00 0.000000e+00
-4.600000e+00 0.000000e+00
-4.590000e+00 0.000000e+00
-4.580000e+00 0.000000e+00
-4.570000e+00 0.000000e+00
-4.560000e+00 0.000000e+00
-4.550000e+00 0.000000e+00
-4.540000e+00 0.000000e+00
-4.530000e+00 0.000000e+00
-4.520000e+00 0.000000e+00
-4.510000e+00 0.000000e+00
-4.500000e+00 0.000000e+00
-4.490000e+00 0.000000e+00
-4.480000e+00 0.000000e+00
-4.470000e+00 0.000000e+00
-4.460000e+00 0.000000e+00
-4.450000e+00 0.000000e+00
-4.440000e+00 0.000000e+00
-4.430000e+00 0.000000e+00
-4.420000e+00 0.000000e+00
-4.410000e+00 0.000000e+00
-4.400000e+00 0.000000e+00
-4.390000e+00 0.000000e+00
-4.380000e+00 0.000000e+00
-4.370000e+00 0.000000e+00
-4.360000e+00 0.000000e+00
-4.350000e+00 0.000000e+00
-4.340000e+00 0.000000e+00
-4.330000e+00 0.000000e+00
-4.320000e+00 0.000000e+00
-4.310000e+00 0.000000e+00
-4.300000e+00 0.000000e+00
-4.290000e+00 0.000000e+00
-4.280000e+00 0.000000e+00
-4.270000e+00 0.000000e+00
-4.260000e+00 0.000000e+00
-4.250000e+00 0.000000e+00
-4.240000e+00 0.000000e+00
-4.230000e+00 0.000000e+00
-4.220000e+00 0.000000e+00
-4.210000e+00 0.000000e+00
-4.200000e+00 0.000000e+00
-4.190000e+00 0.000000e+00
-4.180000e+00 0.000000e+00
-4.170000e+00 0.000000e+00
-4.160000e+00 0.000000e+00
-4.150000e+00 0.000000e+00
-4.140000e+00 0.000000e+00
-4.130000e+00 0.000000e+00
-4.120000e+00 0.000000e+00
-4.110000e+00 0.000000e+00
-4.100000e+00 0.000000e+00
-4.090000e+00 0.000000e+00
-4.080000e+00 0.000000e+00
-4.070000e+00 0.000000e+00
-4.060000e+00 0.000000e+00
-4.050000e+00 0.000000e+00
-4.040000e+00 0.000000e+00
-4.030000e+00 0.000000e+00
-4.020000e+00 0.000000e+00
-4.010000e+00 0.000000e+00
-4.000000e+00 0.000000e+00
-3.990000e+00 0.000000e+00
-3.980000e+00 0.000000e+00
-3.970000e+00 0.000000e+00
-3.960000e+00 0.000000e+00
-3.950000e+00 0.000000e+00
-3.940000e+00 0.000000e+00
-3.930000e+00 0.000000e+00
-3.920000e+00 0.000000e+00
-3.910000e+00 0.000000e+00
-3.900000e+00 0.000000e+00
-3.890000e+00 0.000000e+00
-3.880000e+00 0.000000e+00
-3.870000e+00 0.000000e+00
-3.860000e+00 0.000000e+00
-3.850000e+00 0.000000e+00
-3.840000e+00 0.000000e+00
-3.830000e+00 0.000000e+00
-3.820000e+00 0.000000e+00
-3.810000e+00 0.000000e+00
-3.800000e+00 0.000000e+00
-3.790000e+00 0.000000e+00
-3.780000e+00 0.000000e+00
-3.770000e+00 0.000000e+00
-3.760000e+00 0.000000e+00
-3.750000e+00 0.000000e+00
-3.740000e+00 0.000000e+00
-3.730000e+00 0.000000e+00
-3.720000e+00 0.000000e+00
-3.710000e+00 0.000000e+00
-3.700000e+00 0.000000e+00
-3.690000e+00 0.000000e+00
-3.680000e+00 0.000000e+00
-3.670000e+00 0.000000e+00
-3.660000e+00 0.000000e+00
-3.650000e+00 0.000000e+00
-3.640000e+00 0.000000e+00
-3.630000e+00 0.000000e+00
-3.620000e+00 0.000000e+00
-3.610000e+00 0.000000e+00
-3.600000e+00 0.000000e+00
-3.590000e+00 0.000000e+00
-3.580000e+00 0.000000e+00
-3.570000e+00 0.000000e+00
-3.560000e+00 0.000000e+00
-3.550000e+00 0.000000e+00
-3.540000e+00 0.000000e+00
-3.530000e+00 0.000000e+00
-3.520000e+00 0.000000e+00
-3.510000e+00 0.000000e+00
-3.500000e+00 0.000000e+00
-3.490000e+00 0.000000e+00
-3.480000e+00 0.000000e+00
-3.470000e+00 0.000000e+00
-3.460000e+00 0.000000e+00
-3.450000e+00 0.000000e+00
-3.440000e+00 0.000000e+00
-3.430000e+00 0.000000e+00
-3.420000e+00 0.000000e+00
-3.410000e+00 0.000000e+00
-3.400000e+00 0.000000e+00
-3.390000e+00 0.000000e+00
-3.380000e+00 0.000000e+00
-3.370000e+00 0.000000e+00
-3.360000e+00 0.000000e+00
-3.350000e+00 0.000000e+00
-3.340000e+00 0.000000e+00
-3.330000e+00 0.000000e+00
-3.320000e+00 0.000000e+00
-3.310000e+00 0.000000e+00
-3.300000e+00 0.000000e+00
-3.290000e+00 0.000000e+00
-3.280000e+00 0.000000e+00
-3.270000e+00 0.000000e+00
-3.260000e+00 0.000000e+00
-3.250000e+00 0.000000e+00
-3.240000e+00 0.000000e+00
-3.230000e+00 0.000000e+00
-3.220000e+00 0.000000e+00
-3.210000e+00 0.000000e+00
-3.200000e+00 0.000000e+00
-3.190000e+00 0.000000e+00
-3.180000e+00 0.000000e+00
-3.170000e+00 0.000000e+00
-3.160000e+00 0.000000e+00
-3.150000e+00 0.000000e+00
-3.140000e+00 0.000000e+00
-3.130000e+00 0.000000e+00
-3.120000e+00 0.000000e+00
-3.110000e+00 0.000000e+00
-3.100000e+00 0.000000e+00
-3.090000e+00 0.000000e+00
-3.080000e+00 0.000000e+00
-3.070000e+00 0.000000e+00
-3.060000e+00 0.000000e+00
-3.050000e+00 0.000000e+00
-3.040000e+00 0.000000e+00
-3.030000e+00 0.000000e+00
-3.020000e+00 0.000000e+00
-3.010000e+00 0.000000e+00
-3.000000e+00 0.000000e+00
-2.990000e+00 0.000000e+00
-2.980000e+00 0.000000e+00
-2.970000e+00 0.000000e+00
-2.960000e+00 0.000000e+00
-2.950000e+00 0.000000e+00
-2.940000e+00 0.000000e+00
-2.930000e+00 0.000000e+00
-2.920000e+00 0.000000e+00
-2.910000e+00 0.000000e+00
-2.900000e+00 0.000000e+00
-2.890000e+00 0.000000e+00
-2.880000e+00 0.000000e+00
-2.870000e+00 0.000000e+00
-2.860000e+00 0.000000e+00
-2.850000e+00 0.000000e+00
-2.840000e+00 0.000000e+00
-2.830000e+00 0.000000e+00
-2.820000e+00 0.000000e+00
-2.810000e+00 0.000000e+00
-2.800000e+00 0.000000e+00
-2.790000e+00 0.000000e+00
-2.780000e+00 0.000000e+00
-2.770000e+00 0.000000e+00
-2.760000e+00 0.000000e+00
-2.750000e+00 0.000000e+00
-2.740000e+00 0.000000e+00
-2.730000e+00 0.000000e+00
-2.720000e+00 0.000000e+00
-2.710000e+00 0.000000e+00
-2.700000e+00 0.000000e+00
-2.690000e+00 0.000000e+00
-2.680000e+00 0.000000e+00
-2.670000e+00 0.000000e+00
-2.660000e+00 0.000000e+00
-2.650000e+00 0.000000e+00
-2.640000e+00 0.000000e+00
-2.630000e+00 0.000000e+00
-2.620000e+00 0.000000e+00
-2.610000e+00 0.000000e+00
-2.600000e+00 0.000000e+00
-2.590000e+00 0.000000e+00
-2.580000e+00 0.000000e+00
-2.570000e+00 0.000000e+00
-2.560000e+00 0.000000e+00
-2.550000e+00 0.000000e+00
-2.540000e+00 0.000000e+00
-2.530000e+00 0.000000e+00
-2.520000e+00 0.000000e+00
-2.510000e+00 0.000000e+00
-2.500000e+00 0.000000e+00
-2.490000e+00 0.000000e+00
-2.480000e+00 0.000000e+00
-2.470000e+00 0.000000e+00
-2.460000e+00 0.000000e+00
-2.450000e+00 0.000000e+00
-2.440000e+00 0.000000e+00
-2.430000e+00 0.000000e+00
-2.420000e+00 0.000000e+00
-2.410000e+00 0.000000e+00
-2.400000e+00 0.000000e+00
-2.390000e+00 0.000000e+00
-2.380000e+00 0.000000e+00
-2.370000e+00 0.000000e+00
-2.360000e+00 0.000000e+00
-2.350000e+00 0.000000e+00
-2.340000e+00 0.000000e+00
-2.330000e+00 0.000000e+00
-2.320000e+00 0.000000e+00
-2.310000e+00 0.000000e+00
-2.300000e+00 0.000000e+00
-2.290000e+00 0.000000e+00
-2.280000e+00 0.000000e+00
-2.270000e+00 0.000000e+00
-2.260000e+00 0.000000e+00
-2.250000e+00 0.000000e+00
-2.240000e+00 0.000000e+00
-2.230000e+00 0.000000e+00
-2.220000e+00 0.000000e+00
-2.210000e+00 0.000000e+00
-2.200000e+00 0.000000e+00
-2.190000e+00 0.000000e+00
-2.180000e+00 0.000000e+00
-2.170000e+00 0.000000e+00
-2.160000e+00 0.000000e+00
-2.150000e+00 0.000000e+00
-2.140000e+00 0.000000e+00
-2.130000e+00 0.000000e+00
-2.120000e+00 0.000000e+00
-2.110000e+00 0.000000e+00
-2.100000e+00 0.000000e+00
-2.090000e+00 0.000000e+00
-2.080000e+00 0.000000e+00
-2.070000e+00 0.000000e+00
-2.060000e+00 0.000000e+00
-2.050000e+00 0.000000e+00
-2.040000e+00 0.000000e+00
-2.030000e+00 0.000000e+00
-2.020000e+00 0.000000e+00
-2.010000e+00 0.000000e+00
-2.000000e+00 0.000000e+00
-1.990000e+00 0.000000e+00
-1.980000e+00 0.000000e+00
-1.970000e+00 0.000000e+00
-1.960000e+00 0.000000e+00
-1.950000e+00 0.000000e+00
-1.940000e+00 0.000000e+00
-1.930000e+00 0.000000e+00
-1.920000e+00 0.000000e+00
-1.910000e+00 0.000000e+00
-1.900000e+00 0.000000e+00
-1.890000e+00 0.000000e+00
-1.880000e+00 0.000000e+00
-1.870000e+00 0.000000e+00
-1.860000e+00 0.000000e+00
-1.850000e+00 0.000000e+00
-1.840000e+00 0.000000e+00
-1.830000e+00 0.000000e+00
-1.820000e+00 0.000000e+00
-1.810000e+00 0.000000e+00
-1.800000e+00 0.000000e+00
-1.790000e+00 0.000000e+00
-1.780000e+00 0.000000e+00
-1.770000e+00 0.000000e+00
-1.760000e+00 0.000000e+00
-1.750000e+00 0.000000e+00
-1.740000e+00 0.000000e+00
-1.730000e+00 0.000000e+00
-1.720000e+00 0.000000e+00
-1.710000e+00 0.000000e+00
-1.700000e+00 0.000000e+00
-1.690000e+00 0.000000e+00
-1.680000e+00 0.000000e+00
-1.670000e+00 0.000000e+00
-1.660000e+00 0.000000e+00
-1.650000e+00 0.000000e+00
-1.640000e+00 0.000000e+00
-1.630000e+00 0.000000e+00
-1.620000e+00 0.000000e+00
-1.610000e+00 0.000000e+00
-1.600000e+00 0.000000e+00
-1.590000e+00 0.000000e+00
-1.580000e+00 0.000000e+00
-1.570000e+00 0.000000e+00
-1.560000e+00 0.000000e+00
-1.550000e+00 0.000000e+00
-1.540000e+00 0.000000e+00
-1.530000e+00 0.000000e+00
-1.520000e+00 0.000000e+00
-1.510000e+00 0.000000e+00
-1.500000e+00 0.000000e+00
-1.490000e+00 0.000000e+00
-1.480000e+00 0.000000e+00
-1.470000e+00 0.000000e+00
-1.460000e+00 0.000000e+00
-1.450000e+00 0.000000e+00
-1.440000e+00 0.000000e+00
-1.430000e+00 0.000000e+00
-1.420000e+00 0.000000e+00
-1.410000e+00 0.000000e+00
-1.400000e+00 0.000000e+00
-1.390000e+00 0.000000e+00
-1.380000e+00 0.000000e+00
-1.370000e+00 0.000000e+00
-1.360000e+00 0.000000e+00
-1.350000e+00 0.000000e+00
-1.340000e+00 0.000000e+00
-1.330000e+00 0.000000e+00
-1.320000e+00 0.000000e+00
-1.310000e+00 0.000000e+00
-1.300000e+00 0.000000e+00
-1.290000e+00 0.000000e+00
-1.280000e+00 0.000000e+00
-1.270000e+00 0.000000e+00
-1.260000e+00 0.000000e+00
-1.250000e+00 0.000000e+00
-1.240000e+00 0.000000e+00
-1.230000e+00 0.000000e+00
-1.220000e+00 0.000000e+00
-1.210000e+00 0.000000e+00
-1.200000e+00 0.000000e+00
-1.190000e+00 0.000000e+00
-1.180000e+00 0.000000e+00
-1.170000e+00 0.000000e+00
-1.160000e+00 0.000000e+00
-1.150000e+00 0.000000e+00
-1.140000e+00 0.000000e+00
-1.130000e+00 0.000000e+00
-1.120000e+00 0.000000e+00
-1.110000e+00 0.000000e+00
-1.100000e+00 -4.203895e-45
-1.090000e+00 -4.203895e-45
-1.080000e+00 -5.605194e-45
-1.070000e+00 -4.203895e-45
-1.060000e+00 -4.203895e-45
-1.050000e+00 -4.203895e-45
-1.040000e+00 -2.802597e-45
-1.030000e+00 -4.203895e-45
-1.020000e+00 -1.401298e-45
-1.010000e+00 -1.401298e-45
-1.000000e+00 0.000000e+00
-9.900002e-01 2.802597e-45
-9.800000e-01 -2.802597e-45
-9.700003e-01 0.000000e+00
-9.600000e-01 4.203895e-45
-9.500003e-01 8.407791e-45
-9.400001e-01 5.605194e-45
-9.300003e-01 5.605194e-45
-9.200001e-01 8.407791e-45
-9.100003e-01 8.407791e-45
-9.000001e-01 8.407791e-45
-8.900003e-01 1.261169e-44
-8.800001e-01 1.401298e-44
-8.700004e-01 9.809089e-45
-8.600001e-01 7.006492e-45
-8.500004e-01 4.203895e-45
-8.400002e-01 9.809089e-45
-8.299999e-01 7.006492e-45
-8.200002e-01 4.203895e-45
-8.099999e-01 5.605194e-45
-8.000002e-01 4.203895e-45
-7.900000e-01 -2.802597e-45
-7.800002e-01 -2.802597e-45
-7.700000e-01 -8.407791e-45
-7.600002e-01 -1.261169e-44
-7.500000e-01 -1.541428e-44
-7.400002e-01 -2.101948e-44
-7.300000e-01 -1.681558e-44
-7.200003e-01 -1.821688e-44
-7.100000e-01 -1.961818e-44
-7.000003e-01 -2.242078e-44
-6.900001e-01 -1.681558e-44
-6.800003e-01 -2.802597e-45
-6.700001e-01 0.000000e+00
-6.600003e-01 4.203895e-45
-6.500001e-01 1.401298e-44
-6.400003e-01 3.783506e-44
-6.300001e-01 4.203895e-44
-6.200004e-01 6.165713e-44
-6.100001e-01 7.006492e-44
-6.000004e-01 8.267661e-44
-5.900002e-01 9.809089e-44
-5.800004e-01 1.022948e-43
-5.700002e-01 1.107026e-43
-5.599999e-01 1.135052e-43
-5.500002e-01 1.107026e-43
-5.400000e-01 1.008935e-43
-5.300002e-01 8.828180e-44
-5.200000e-01 6.305843e-44
-5.100002e-01 3.643376e-44
-5.000000e-01 0.000000e+00
-4.900002e-01 -3.503246e-44
-4.800000e-01 -9.108440e-44
-4.700003e-01 -1.373272e-43
-4.600000e-01 -2.045896e-43
-4.500003e-01 -2.662467e-43
-4.400001e-01 -3.124896e-43
-4.300003e-01 -3.755480e-43
-4.200001e-01 -4.273960e-43
-4.100003e-01 -4.708363e-43
-4.000001e-01 -5.268882e-43
-3.900003e-01 -5.423025e-43
-3.800001e-01 -5.535129e-43
-3.700004e-01 -5.451051e-43
-3.600001e-01 -5.058687e-43
-3.500004e-01 -4.554220e-43
-3.400002e-01 -3.643376e-43
-3.300004e-01 -2.634441e-43
-3.200002e-01 -1.275182e-43
-3.099999e-01 3.503246e-44
-3.000002e-01 2.158000e-43
-2.900000e-01 4.231921e-43
-2.800002e-01 6.361895e-43
-2.700000e-01 8.631999e-43
-2.600002e-01 1.102822e-42
-2.500000e-01 1.327030e-42
-2.400002e-01 1.533021e-42
-2.300000e-01 1.713788e-42
-2.200003e-01 1.863727e-42
-2.100000e-01 1.977232e-42
-2.000003e-01 2.001054e-42
-1.900001e-01 1.967423e-42
-1.800003e-01 1.856720e-42
-1.700001e-01 1.657736e-42
-1.600003e-01 1.357858e-42
-1.500001e-01 9.612907e-43
-1.400003e-01 4.610272e-43
-1.300001e-01 -1.457350e-43
-1.200004e-01 -8.309700e-43
-1.100001e-01 -1.603085e-42
-1.000004e-01 -2.428450e-42
-9.000015e-02 -3.305663e-42
-8.000040e-02 -4.194086e-42
-7.000017e-02 -5.062891e-42
-5.999994e-02 -5.884052e-42
-5.000019e-02 -6.621135e-42
-3.999996e-02 -7.232101e-42
-3.000021e-02 -7.652491e-42
-1.999998e-02 -7.879501e-42
-1.000023e-02 -7.841666e-42
0.000000e+00 -7.519368e-42
1.000023e-02 -6.867764e-42
1.999950e-02 -5.851822e-42
2.999973e-02 -4.472945e-42
3.999996e-02 -2.725526e-42
5.000019e-02 -6.053609e-43
5.999947e-02 1.865128e-42
6.999969e-02 4.636897e-42
7.999992e-02 7.659497e-42
9.000015e-02 1.086847e-41
9.999943e-02 1.417974e-41
1.099997e-01 1.746158e-41
1.199999e-01 2.060890e-41
1.300001e-01 2.348016e-41
1.399994e-01 2.593243e-41
1.499996e-01 2.779476e-41
1.599998e-01 2.894802e-41
1.700001e-01 2.920166e-41
1.799994e-01 2.844215e-41
1.899996e-01 2.652658e-41
1.999998e-01 2.336245e-41
2.100000e-01 1.888250e-41
2.200003e-01 1.305029e-41
2.299995e-01 5.856026e-42
2.399998e-01 -2.623231e-42
2.500000e-01 -1.225295e-41
2.600002e-01 -2.289161e-41
2.699995e-01 -3.425894e-41
2.799997e-01 -4.608590e-41
2.900000e-01 -5.799274e-41
3.000002e-01 -6.957167e-41
3.099995e-01 -8.033364e-41
3.199997e-01 -8.978540e-41
3.299999e-01 -9.738324e-41
3.400002e-01 -1.025849e-40
3.499994e-01 -1.048494e-40
3.599997e-01 -1.036386e-40
3.699999e-01 -9.854071e-41
3.800001e-01 -8.913379e-41
3.899994e-01 -7.511240e-41
3.999996e-01 -5.634761e-41
4.099998e-01 -3.279599e-41
4.200001e-01 -4.606068e-42
4.299994e-01 2.785921e-41
4.399996e-01 6.406877e-41
4.499998e-01 1.032547e-40
4.600000e-01 1.444500e-40
4.700003e-01 1.864512e-40
4.799995e-01 2.278623e-40
4.899998e-01 2.671309e-40
5.000000e-01 3.025193e-40
5.100002e-01 3.322114e-40
5.199995e-01 3.543071e-40
5.299997e-01 3.669314e-40
5.400000e-01 3.682528e-40
5.500002e-01 3.565982e-40
5.599995e-01 3.305425e-40
5.699997e-01 2.889477e-40
5.799999e-01 2.310517e-40
5.900002e-01 1.566231e-40
5.999994e-01 6.591428e-41
6.099997e-01 -4.012058e-41
6.199999e-01 -1.599134e-40
6.300001e-01 -2.911506e-40
6.399994e-01 -4.307816e-40
6.499996e-01 -5.750438e-40
6.599998e-01 -7.194462e-40
6.700001e-01 -8.588754e-40
6.799994e-01 -9.876912e-40
6.899996e-01 -1.099803e-39
6.999998e-01 -1.188873e-39
7.100000e-01 -1.248491e-39
7.200003e-01 -1.272380e-39
7.299995e-01 -1.254681e-39
7.399998e-01 -1.190133e-39
7.500000e-01 -1.074434e-39
7.600002e-01 -9.045255e-40
7.699995e-01 -6.787708e-40
7.799997e-01 -3.973059e-40
7.900000e-01 -6.226389e-41
8.000002e-01 3.220282e-40
8.099995e-01 7.489254e-40
8.199997e-01 1.209339e-39
8.299999e-01 1.691746e-39
8.400002e-01 2.182248e-39
8.499994e-01 2.664746e-39
8.599997e-01 3.121171e-39
8.699999e-01 3.531935e-39
8.800001e-01 3.876275e-39
8.899994e-01 4.132936e-39
8.999996e-01 4.280842e-39
9.099998e-01 4.299789e-39
9.200001e-01 4.171312e-39
9.299994e-01 3.879593e-39
9.399996e-01 3.412376e-39
9.499998e-01 2.761809e-39
9.600000e-01 1.925392e-39
9.700003e-01 9.067957e-40
9.799995e-01 -2.835107e-40
9.899998e-01 -1.627614e-39
1.000000e+00 -3.099836e-39
1.010000e+00 -4.666549e-39
1.020000e+00 -6.286261e-39
1.030000e+00 -7.910071e-39
1.040000e+00 -9.482276e-39
1.050000e+00 -1.094148e-38
1.059999e+00 -1.222191e-38
1.070000e+00 -1.325511e-38
1.080000e+00 -1.397199e-38
1.090000e+00 -1.430512e-38
1.099999e+00 -1.419126e-38
1.110000e+00 -1.357411e-38
1.120000e+00 -1.240728e-38
1.130000e+00 -1.065701e-38
1.139999e+00 -8.305193e-39
1.150000e+00 -5.351992e-39
1.160000e+00 -1.818276e-39
1.170000e+00 2.252411e-39
1.179999e+00 6.792294e-39
1.190000e+00 1.170852e-38
1.200000e+00 1.688310e-38
1.210000e+00 2.217358e-38
1.220000e+00 2.741476e-38
1.230000e+00 3.242140e-38
1.240000e+00 3.699184e-38
1.250000e+00 4.091295e-38
1.260000e+00 4.396566e-38
1.270000e+00 4.593189e-38
1.280000e+00 4.660205e-38
1.290000e+00 4.578328e-38
1.300000e+00 4.330812e-38
1.309999e+00 3.904368e-38
1.320000e+00 3.290043e-38
1.330000e+00 2.484100e-38
1.340000e+00 1.488814e-38
1.349999e+00 3.131489e-39
1.360000e+00 -1.026656e-38
1.370000e+00 -2.506728e-38
1.380000e+00 -4.095391e-38
1.389999e+00 -5.753226e-38
1.400000e+00 -7.433410e-38
1.410000e+00 -9.082406e-38
1.420000e+00 -1.064086e-37
1.429999e+00 -1.204488e-37
1.440000e+00 -1.322763e-37
1.450000e+00 -1.412120e-37
1.460000e+00 -1.465876e-37
1.469999e+00 -1.477696e-37
1.480000e+00 -1.441843e-37
1.490000e+00 -1.353456e-37
1.500000e+00 -1.208818e-37
1.510000e+00 -1.005621e-37
1.520000e+00 -7.432240e-38
1.530000e+00 -4.228832e-38
1.540000e+00 -4.794411e-39
1.550000e+00 3.760110e-38
1.559999e+00 8.410713e-38
1.570000e+00 1.336968e-37
1.580000e+00 1.851133e-37
1.590000e+00 2.368831e-37
1.599999e+00 2.873378e-37
1.610000e+00 3.346471e-37
1.620000e+00 3.768574e-37
1.630000e+00 4.119448e-37
1.639999e+00 4.378711e-37
1.650000e+00 4.526510e-37
1.660000e+00 4.544252e-37
1.670000e+00 4.415348e-37
1.679999e+00 4.126040e-37
1.690000e+00 3.666178e-37
1.700000e+00 3.030003e-37
1.710000e+00 2.216860e-37
1.719999e+00 1.231852e-37
1.730000e+00 8.634957e-39
1.740000e+00 -1.201628e-37
1.750000e+00 -2.607205e-37
1.760000e+00 -4.098639e-37
1.770000e+00 -5.637573e-37
1.780000e+00 -7.179487e-37
1.790000e+00 -8.674432e-37
1.800000e+00 -1.006805e-36
1.809999e+00 -1.130282e-36
1.820000e+00 -1.231955e-36
1.830000e+00 -1.305920e-36
1.840000e+00 -1.346476e-36
1.849999e+00 -1.348344e-36
1.860000e+00 -1.306881e-36
1.870000e+00 -1.218314e-36
1.880000e+00 -1.079964e-36
1.889999e+00 -8.904596e-37
1.900000e+00 -6.499399e-37
1.910000e+00 -3.602188e-37
1.920000e+00 -2.492718e-38
1.929999e+00 3.504004e-37
1.940000e+00 7.582817e-37
1.950000e+00 1.189309e-36
1.960000e+00 1.632232e-36
1.969999e+00 2.074120e-36
1.980000e+00 2.500580e-36
1.990000e+00 2.896068e-36
2.000000e+00 3.244260e-36
2.010000e+00 3.528502e-36
2.020000e+00 3.732309e-36
2.030000e+00 3.839922e-36
2.040000e+00 3.836915e-36
2.050000e+00 3.710803e-36
2.059999e+00 3.451686e-36
2.070000e+00 3.052844e-36
2.080000e+00 2.511338e-36
2.090000e+00 1.828514e-36
2.099999e+00 1.010448e-36
2.110000e+00 6.828621e-38
2.120000e+00 -9.815555e-37
2.130000e+00 -2.117343e-36
2.139999e+00 -3.312123e-36
2.150000e+00 -4.534025e-36
2.160000e+00 -5.746760e-36
2.170000e+00 -6.910299e-36
2.179999e+00 -7.981771e-36
2.190000e+00 -8.916542e-36
2.200000e+00 -9.669472e-36
2.210000e+00 -1.019634e-35
2.219999e+00 -1.045538e-35
2.230000e+00 -1.040891e-35
2.240000e+00 -1.002503e-35
2.250000e+00 -9.279280e-36
2.260000e+00 -8.156253e-36
2.270000e+00 -6.651128e-36
2.280000e+00 -4.770926e-36
2.290000e+00 -2.535632e-36
2.300000e+00 2.106710e-38
2.309999e+00 2.851393e-36
2.320000e+00 5.893481e-36
2.330000e+00 9.071893e-36
2.340000e+00 1.229858e-35
2.349999e+00 1.547443e-35
2.360000e+00 1.849129e-35
2.370000e+00 2.123451e-35
2.380000e+00 2.358605e-35
2.389999e+00 2.542791e-35
2.400000e+00 2.664615e-35
2.410000e+00 2.713482e-35
2.420000e+00 2.680059e-35
2.429999e+00 2.556697e-35
2.440000e+00 2.337876e-35
2.450000e+00 2.020605e-35
2.460000e+00 1.604814e-35
2.469999e+00 1.093644e-35
2.480000e+00 4.937150e-36
2.490000e+00 -1.847349e-36
2.500000e+00 -9.277885e-36
2.510000e+00 -1.717918e-35
2.520000e+00 -2.534169e-35
2.530000e+00 -3.352489e-35
2.540000e+00 -4.146192e-35
2.550000e+00 -4.886554e-35
2.559999e+00 -5.543545e-35
2.570000e+00 -6.086694e-35
2.580000e+00 -6.486042e-35
2.590000e+00 -6.713198e-35
2.599999e+00 -6.742461e-35
2.610000e+00 -6.551946e-35
2.620000e+00 -6.124759e-35
2.630000e+00 -5.450067e-35
2.639999e+00 -4.524142e-35
2.650000e+00 -3.351244e-35
2.660000e+00 -1.944355e-35
2.670000e+00 -3.256949e-36
2.679999e+00 1.473027e-35
2.690000e+00 3.410619e-35
2.700000e+00 5.436771e-35
2.710000e+00 7.492723e-35
2.719999e+00 9.512346e-35
2.730000e+00 1.142350e-34
2.740000e+00 1.314984e-34
2.750000e+00 1.461292e-34
2.760000e+00 1.573458e-34
2.770000e+00 1.643962e-34
2.780000e+00 1.665865e-34
2.790000e+00 1.633110e-34
2.800000e+00 1.540825e-34
2.809999e+00 1.385613e-34
2.820000e+00 1.165839e-34
2.830000e+00 8.818806e-35
2.840000e+00 5.363376e-35
2.849999e+00 1.342006e-35
2.860000e+00 -3.170527e-35
2.870000e+00 -8.074276e-35
2.880000e+00 -1.324464e-34
2.889999e+00 -1.853381e-34
2.900000e+00 -2.377303e-34
2.910000e+00 -2.877606e-34
2.920000e+00 -3.334330e-34
2.929999e+00 -3.726711e-34
2.940000e+00 -4.033788e-34
2.950000e+00 -4.235084e-34
2.960000e+00 -4.311359e-34
2.969999e+00 -4.245399e-34
2.980000e+00 -4.022829e-34
2.990000e+00 -3.632929e-34
3.000000e+00 -3.069426e-34
3.010000e+00 -2.331215e-34
3.020000e+00 -1.423010e-34
3.030000e+00 -3.558684e-35
3.040000e+00 8.524582e-35
3.050000e+00 2.177290e-34
3.059999e+00 3.587064e-34
3.070000e+00 5.043576e-34
3.080000e+00 6.502436e-34
3.090000e+00 7.913870e-34
3.099999e+00 9.223694e-34
3.110000e+00 1.037464e-33
3.120000e+00 1.130785e-33
3.130000e+00 1.196467e-33
3.139999e+00 1.228862e-33