-8.000000e+00 0.000000e+00
-7.990000e+00 0.000000e+00
-7.980000e+00 0.000000e+00
-7.970000e+00 0.000000e+00
-7.960000e+00 0.000000e+00
-7.950000e+00 0.000000e+00
-7.940000e+00 0.000000e+00
-7.930000e+00 0.000000e+00
-7.920000e+00 0.000000e+00
-7.910000e+00 0.000000e+00
-7.900000e+00 0.000000e+00
-7.890000e+00 0.000000e+00
-7.880000e+00 0.000000e+00
-7.870000e+00 0.000000e+00
-7.860000e+00 0.000000e+00
-7.850000e+00 0.000000e+00
-7.840000e+00 0.000000e+00
-7.830000e+00 0.000000e+00
-7.820000e+00 0.000000e+00
-7.810000e+00 0.000000e+00
-7.800000e+00 0.000000e+00
-7.790000e+00 0.000000e+00
-7.780000e+00 0.000000e+00
-7.770000e+00 0.000000e+00
-7.760000e+00 0.000000e+00
-7.750000e+00 0.000000e+00
-7.740000e+00 0.000000e+00
-7.730000e+00 0.000000e+00
-7.720000e+00 0.000000e+00
-7.710000e+00 0.000000e+00
-7.700000e+00 0.000000e+00
-7.690000e+00 0.000000e+00
-7.680000e+00 0.000000e+00
-7.670000e+00 0.000000e+00
-7.660000e+00 0.000000e+00
-7.650000e+00 0.000000e+00
-7.640000e+00 0.000000e+00
-7.630000e+00 0.000000e+00
-7.620000e+00 -4.203895e-45
-7.610000e+00 -5.605194e-45
-7.600000e+00 -1.821688e-44
-7.590000e+00 -3.643376e-44
-7.580000e+00 -7.426882e-44
-7.570000e+00 -1.471363e-43
-7.560000e+00 -2.802597e-43
-7.550000e+00 -5.352960e-43
-7.540000e+00 -9.935206e-43
-7.530000e+00 -1.814682e-42
-7.520000e+00 -3.272032e-42
-7.510000e+00 -5.826599e-42
-7.500000e+00 -1.022387e-41
-7.490000e+00 -1.773764e-41
-7.480000e+00 -3.038856e-41
-7.470000e+00 -5.149351e-41
-7.460000e+00 -8.627655e-41
-7.450000e+00 -1.430053e-40
-7.440000e+00 -2.345830e-40
-7.430000e+00 -3.809486e-40
-7.420000e+00 -6.125930e-40
-7.410000e+00 -9.757451e-40
-7.400000e+00 -1.539890e-39
-7.390000e+00 -2.408426e-39
-7.380000e+00 -3.733978e-39
-7.370000e+00 -5.739885e-39
-7.360000e+00 -8.750226e-39
-7.350000e+00 -1.323148e-38
-7.340000e+00 -1.984963e-38
-7.330000e+00 -2.954808e-38
-7.320000e+00 -4.365289e-38
-7.310000e+00 -6.401372e-38
-7.300000e+00 -9.319143e-38
-7.290000e+00 -1.347049e-37
-7.280000e+00 -1.933547e-37
-7.270000e+00 -2.756421e-37
-7.260000e+00 -3.903087e-37
-7.250000e+00 -5.490251e-37
-7.240000e+00 -7.672631e-37
-7.230000e+00 -1.065389e-36
-7.220000e+00 -1.470026e-36
-7.210000e+00 -2.015734e-36
-7.200000e+00 -2.747062e-36
-7.190000e+00 -3.721040e-36
-7.180000e+00 -5.010158e-36
-7.170000e+00 -6.705915e-36
-7.160000e+00 -8.922982e-36
-7.150000e+00 -1.180405e-35
-7.140000e+00 -1.552536e-35
-7.130000e+00 -2.030300e-35
-7.120000e+00 -2.639993e-35
-7.110000e+00 -3.413360e-35
-7.100000e+00 -4.388425e-35
-7.090000e+00 -5.610354e-35
-7.080000e+00 -7.132329e-35
-7.070000e+00 -9.016404e-35
-7.060000e+00 -1.133429e-34
-7.050000e+00 -1.416801e-34
-7.040000e+00 -1.761034e-34
-7.030000e+00 -2.176492e-34
-7.020000e+00 -2.674601e-34
-7.010000e+00 -3.267759e-34
-7.000000e+00 -3.969182e-34
-6.990000e+00 -4.792664e-34
-6.980000e+00 -5.752213e-34
-6.970000e+00 -6.861577e-34
-6.960000e+00 -8.133604e-34
-6.950000e+00 -9.579463e-34
-6.940000e+00 -1.120760e-33
-6.930000e+00 -1.302256e-33
-6.920000e+00 -1.502358e-33
-6.910000e+00 -1.720285e-33
-6.900000e+00 -1.954370e-33
-6.890000e+00 -2.201840e-33
-6.880000e+00 -2.458585e-33
-6.870000e+00 -2.718910e-33
-6.860000e+00 -2.975275e-33
-6.850000e+00 -3.218029e-33
-6.840000e+00 -3.435164e-33
-6.830000e+00 -3.612064e-33
-6.820000e+00 -3.731331e-33
-6.810000e+00 -3.772623e-33
-6.800000e+00 -3.712607e-33
-6.790000e+00 -3.524996e-33
-6.780000e+00 -3.180717e-33
-6.770000e+00 -2.648251e-33
-6.760000e+00 -1.894154e-33
-6.750000e+00 -8.838026e-34
-6.740000e+00 4.176107e-34
-6.730000e+00 2.043797e-33
-6.720000e+00 4.025796e-33
-6.710000e+00 6.390092e-33
-6.700000e+00 9.156395e-33
-6.690000e+00 1.233511e-32
-6.680000e+00 1.592455e-32
-6.670000e+00 1.990783e-32
-6.660000e+00 2.424965e-32
-6.650000e+00 2.889291e-32
-6.640000e+00 3.375539e-32
-6.630000e+00 3.872649e-32
-6.620000e+00 4.366440e-32
-6.610000e+00 4.839371e-32
-6.600000e+00 5.270381e-32
-6.590000e+00 5.634806e-32
-6.580000e+00 5.904461e-32
-6.570000e+00 6.047833e-32
-6.560000e+00 6.030479e-32
-6.550000e+00 5.815632e-32
-6.540000e+00 5.365015e-32
-6.530000e+00 4.639945e-32
-6.520000e+00 3.602675e-32
-6.510000e+00 2.218033e-32
-6.500000e+00 4.553245e-33
-6.490000e+00 -1.709501e-32
-6.480000e+00 -4.291442e-32
-6.470000e+00 -7.293866e-32
-6.460000e+00 -1.070577e-31
-6.450000e+00 -1.449905e-31
-6.440000e+00 -1.862575e-31
-6.430000e+00 -2.301556e-31
-6.420000e+00 -2.757360e-31
-6.410000e+00 -3.217862e-31
-6.400000e+00 -3.668202e-31
-6.390000e+00 -4.090748e-31
-6.380000e+00 -4.465184e-31
-6.370000e+00 -4.768699e-31
-6.360000e+00 -4.976324e-31
-6.350000e+00 -5.061436e-31
-6.340000e+00 -4.996409e-31
-6.330000e+00 -4.753456e-31
-6.320000e+00 -4.305647e-31
-6.310000e+00 -3.628097e-31
-6.300000e+00 -2.699324e-31
-6.290000e+00 -1.502750e-31
-6.280000e+00 -2.830978e-33
-6.270000e+00 1.725878e-31
-6.260000e+00 3.751815e-31
-6.250000e+00 6.030000e-31
-6.240000e+00 8.527903e-31
-6.230000e+00 1.119872e-30
-6.220000e+00 1.398035e-30
-6.210000e+00 1.679490e-30
-6.200000e+00 1.954862e-30
-6.190000e+00 2.213254e-30
-6.180000e+00 2.442377e-30
-6.170000e+00 2.628764e-30
-6.160000e+00 2.758075e-30
-6.150000e+00 2.815493e-30
-6.140000e+00 2.786214e-30
-6.130000e+00 2.656026e-30
-6.120000e+00 2.411980e-30
-6.110000e+00 2.043137e-30
-6.100000e+00 1.541358e-30
-6.090000e+00 9.021468e-31
-6.080000e+00 1.254821e-31
-6.070000e+00 -7.833656e-31
-6.060000e+00 -1.813097e-30
-6.050000e+00 -2.945758e-30
-6.040000e+00 -4.156264e-30
-6.030000e+00 -5.412164e-30
-6.020000e+00 -6.673633e-30
-6.010000e+00 -7.893800e-30
-6.000000e+00 -9.019441e-30
-5.990000e+00 -9.992031e-30
-5.980000e+00 -1.074925e-29
-5.970000e+00 -1.122691e-29
-5.960000e+00 -1.136134e-29
-5.950000e+00 -1.109212e-29
-5.940000e+00 -1.036525e-29
-5.930000e+00 -9.136533e-30
-5.920000e+00 -7.375258e-30
-5.910000e+00 -5.067838e-30
-5.900000e+00 -2.221461e-30
-5.890000e+00 1.132590e-30
-5.880000e+00 4.936018e-30
-5.870000e+00 9.101308e-30
-5.860000e+00 1.351038e-29
-5.850000e+00 1.801444e-29
-5.840000e+00 2.243507e-29
-5.830000e+00 2.656702e-29
-5.820000e+00 3.018255e-29
-5.810000e+00 3.303781e-29
-5.800000e+00 3.488090e-29
-5.790000e+00 3.546202e-29
-5.780000e+00 3.454533e-29
-5.770000e+00 3.192233e-29
-5.760000e+00 2.742664e-29
-5.750000e+00 2.094947e-29
-5.740000e+00 1.245538e-29
-5.730000e+00 1.997734e-30
-5.720000e+00 -1.026723e-29
-5.710000e+00 -2.406830e-29
-5.700000e+00 -3.901028e-29
-5.690000e+00 -5.456915e-29
-5.680000e+00 -7.009219e-29
-5.670000e+00 -8.480418e-29
-5.660000e+00 -9.782067e-29
-5.650000e+00 -1.081687e-28
-5.640000e+00 -1.148162e-28
-5.630000e+00 -1.167089e-28
-5.620000e+00 -1.128170e-28
-5.610000e+00 -1.021880e-28
-5.600000e+00 -8.400805e-29
-5.590000e+00 -5.766746e-29
-5.580000e+00 -2.283048e-29
-5.570000e+00 2.049470e-29
-5.560000e+00 7.188762e-29
-5.550000e+00 1.304531e-28
-5.540000e+00 1.947688e-28
-5.530000e+00 2.628463e-28
-5.520000e+00 3.321110e-28
-5.510000e+00 3.994056e-28
-5.500000e+00 4.610194e-28
-5.490000e+00 5.127522e-28
-5.480000e+00 5.500077e-28
-5.470000e+00 5.679293e-28
-5.460000e+00 5.615712e-28
-5.450000e+00 5.261070e-28
-5.440000e+00 4.570751e-28
-5.430000e+00 3.506563e-28
-5.420000e+00 2.039748e-28
-5.410000e+00 1.541604e-29
-5.400000e+00 -2.150477e-28
-5.390000e+00 -4.855411e-28
-5.380000e+00 -7.919937e-28
-5.370000e+00 -1.127886e-27
-5.360000e+00 -1.484054e-27
-5.350000e+00 -1.848583e-27
-5.340000e+00 -2.206783e-27
-5.330000e+00 -2.541299e-27
-5.320000e+00 -2.832351e-27
-5.310000e+00 -3.058128e-27
-5.300000e+00 -3.195337e-27
-5.290000e+00 -3.219942e-27
-5.280000e+00 -3.108049e-27
-5.270000e+00 -2.836974e-27
-5.260000e+00 -2.386451e-27
-5.250000e+00 -1.739962e-27
-5.240000e+00 -8.861658e-28
-5.230000e+00 1.796353e-28
-5.220000e+00 1.454029e-27
-5.210000e+00 2.924106e-27
-5.200000e+00 4.566209e-27
-5.190000e+00 6.344905e-27
-5.180000e+00 8.212262e-27
-5.170000e+00 1.010753e-26
-5.160000e+00 1.195726e-26
-5.150000e+00 1.367603e-26
-5.140000e+00 1.516780e-26
-5.130000e+00 1.632782e-26
-5.120000e+00 1.704547e-26
-5.110000e+00 1.720767e-26
-5.100000e+00 1.670311e-26
-5.090000e+00 1.542706e-26
-5.080000e+00 1.328695e-26
-5.070000e+00 1.020819e-26
-5.060000e+00 6.140589e-27
-5.050000e+00 1.064635e-27
-5.040000e+00 -5.002150e-27
-5.030000e+00 -1.199935e-26
-5.020000e+00 -1.981846e-26
-5.010000e+00 -2.829874e-26
-5.000000e+00 -3.722444e-26
-4.990000e+00 -4.632371e-26
-4.980000e+00 -5.526965e-26
-4.970000e+00 -6.368371e-26
-4.960000e+00 -7.114165e-26
-4.950000e+00 -7.718244e-26
-4.940000e+00 -8.132021e-26
-4.930000e+00 -8.305891e-26
-4.920000e+00 -8.191024e-26
-4.910000e+00 -7.741415e-26
-4.900000e+00 -6.916146e-26
-4.890000e+00 -5.681871e-26
-4.880000e+00 -4.015383e-26
-4.870000e+00 -1.906233e-26
-4.860000e+00 6.407203e-27
-4.850000e+00 3.602943e-26
-4.840000e+00 6.938140e-26
-4.830000e+00 1.058260e-25
-4.820000e+00 1.445013e-25
-4.810000e+00 1.843162e-25
-4.800000e+00 2.239548e-25
-4.790000e+00 2.618902e-25
-4.780000e+00 2.964079e-25
-4.770000e+00 3.256415e-25
-4.760000e+00 3.476190e-25
-4.750000e+00 3.603204e-25
-4.740000e+00 3.617472e-25
-4.730000e+00 3.500020e-25
-4.720000e+00 3.233766e-25
-4.710000e+00 2.804465e-25
-4.700000e+00 2.201707e-25
-4.690000e+00 1.419916e-25
-4.680000e+00 4.593276e-26
-4.670000e+00 -6.731023e-26
-4.660000e+00 -1.962900e-25
-4.650000e+00 -3.387435e-25
-4.640000e+00 -4.915494e-25
-4.630000e+00 -6.507109e-25
-4.620000e+00 -8.113691e-25
-4.610000e+00 -9.678503e-25
-4.600000e+00 -1.113751e-24
-4.590000e+00 -1.242067e-24
-4.580000e+00 -1.345358e-24
-4.570000e+00 -1.415956e-24
-4.560000e+00 -1.446223e-24
-4.550000e+00 -1.428828e-24
-4.540000e+00 -1.357074e-24
-4.530000e+00 -1.225237e-24
-4.520000e+00 -1.028927e-24
-4.510000e+00 -7.654506e-25
-4.500000e+00 -4.341645e-25
-4.490000e+00 -3.680901e-26
-4.480000e+00 4.221994e-25
-4.470000e+00 9.355319e-25
-4.460000e+00 1.492782e-24
-4.450000e+00 2.080388e-24
-4.440000e+00 2.681664e-24
-4.430000e+00 3.276948e-24
-4.420000e+00 3.843878e-24
-4.410000e+00 4.357817e-24
-4.400000e+00 4.792412e-24
-4.390000e+00 5.120305e-24
-4.380000e+00 5.313976e-24
-4.370000e+00 5.346732e-24
-4.360000e+00 5.193785e-24
-4.350000e+00 4.833426e-24
-4.340000e+00 4.248269e-24
-4.330000e+00 3.426490e-24
-4.320000e+00 2.363069e-24
-4.310000e+00 1.060936e-24
-4.300000e+00 -4.679843e-25
-4.290000e+00 -2.201920e-24
-4.280000e+00 -4.108628e-24
-4.270000e+00 -6.145062e-24
-4.260000e+00 -8.257383e-24
-4.250000e+00 -1.038136e-23
-4.240000e+00 -1.244319e-23
-4.230000e+00 -1.436082e-23
-4.220000e+00 -1.604567e-23
-4.210000e+00 -1.740493e-23
-4.200000e+00 -1.834422e-23
-4.190000e+00 -1.877080e-23
-4.180000e+00 -1.859705e-23
-4.170000e+00 -1.774430e-23
-4.160000e+00 -1.614691e-23
-4.150000e+00 -1.375637e-23
-4.140000e+00 -1.054541e-23
-4.130000e+00 -6.511893e-24
-4.120000e+00 -1.682380e-24
-4.110000e+00 3.884878e-24
-4.100000e+00 1.009761e-23
-4.090000e+00 1.682814e-23
-4.080000e+00 2.391296e-23
-4.070000e+00 3.115368e-23
-4.060000e+00 3.831914e-23
-4.050000e+00 4.514907e-23
-4.040000e+00 5.135924e-23
-4.030000e+00 5.664820e-23
-4.020000e+00 6.070530e-23
-4.010000e+00 6.322051e-23
-4.000000e+00 6.389511e-23
-3.990000e+00 6.245361e-23
-3.980000e+00 5.865640e-23
-3.970000e+00 5.231303e-23
-3.960000e+00 4.329512e-23
-3.950000e+00 3.154920e-23
-3.940000e+00 1.710847e-23
-3.930000e+00 1.031403e-25
-3.920000e+00 -1.923117e-23
-3.910000e+00 -4.054761e-23
-3.900000e+00 -6.338542e-23
-3.890000e+00 -8.717056e-23
-3.880000e+00 -1.112206e-22
-3.870000e+00 -1.347538e-22
-3.860000e+00 -1.569027e-22
-3.850000e+00 -1.767325e-22
-3.840000e+00 -1.932642e-22
-3.830000e+00 -2.055015e-22
-3.820000e+00 -2.124630e-22
-3.810000e+00 -2.132168e-22
-3.800000e+00 -2.069181e-22
-3.790000e+00 -1.928494e-22
-3.780000e+00 -1.704605e-22
-3.770000e+00 -1.394079e-22
-3.760000e+00 -9.959344e-23
-3.750000e+00 -5.119789e-23
-3.740000e+00 5.289342e-24
-3.730000e+00 6.904788e-23
-3.720000e+00 1.389117e-22
-3.710000e+00 2.133649e-22
-3.700000e+00 2.905479e-22
-3.690000e+00 3.682765e-22
-3.680000e+00 4.440728e-22
-3.670000e+00 5.152109e-22
-3.660000e+00 5.787768e-22
-3.650000e+00 6.317390e-22
-3.640000e+00 6.710351e-22
-3.630000e+00 6.936671e-22
-3.620000e+00 6.968077e-22
-3.610000e+00 6.779126e-22
-3.600000e+00 6.348381e-22
-3.590000e+00 5.659584e-22
-3.580000e+00 4.702807e-22
-3.570000e+00 3.475536e-22
-3.560000e+00 1.983631e-22
-3.550000e+00 2.421347e-23
-3.540000e+00 -1.724119e-22
-3.530000e+00 -3.880151e-22
-3.520000e+00 -6.180764e-22
-3.510000e+00 -8.570782e-22
-3.500000e+00 -1.098566e-21
-3.490000e+00 -1.335243e-21
-3.480000e+00 -1.559110e-21
-3.470000e+00 -1.761628e-21
-3.460000e+00 -1.933940e-21
-3.450000e+00 -2.067103e-21
-3.440000e+00 -2.152367e-21
-3.430000e+00 -2.181474e-21
-3.420000e+00 -2.146968e-21
-3.410000e+00 -2.042522e-21
-3.400000e+00 -1.863267e-21
-3.390000e+00 -1.606101e-21
-3.380000e+00 -1.269984e-21
-3.370000e+00 -8.562036e-22
-3.360000e+00 -3.685831e-22
-3.350000e+00 1.863531e-22
-3.340000e+00 7.992906e-22
-3.330000e+00 1.458111e-21
-3.320000e+00 2.147958e-21
-3.310000e+00 2.851414e-21
-3.300000e+00 3.548748e-21
-3.290000e+00 4.218292e-21
-3.280000e+00 4.836887e-21
-3.270000e+00 5.380454e-21
-3.260000e+00 5.824620e-21
-3.250000e+00 6.145442e-21
-3.240000e+00 6.320188e-21
-3.230000e+00 6.328142e-21
-3.220000e+00 6.151459e-21
-3.210000e+00 5.775990e-21
-3.200000e+00 5.192100e-21
-3.190000e+00 4.395404e-21
-3.180000e+00 3.387432e-21
-3.170000e+00 2.176188e-21
-3.160000e+00 7.765314e-22
-3.150000e+00 -7.895833e-22
-3.140000e+00 -2.493073e-21
-3.130000e+00 -4.297910e-21
-3.120000e+00 -6.161531e-21
-3.110000e+00 -8.035489e-21
-3.100000e+00 -9.866336e-21
-3.090000e+00 -1.159678e-20
-3.080000e+00 -1.316700e-20
-3.070000e+00 -1.451623e-20
-3.060000e+00 -1.558453e-20
-3.050000e+00 -1.631455e-20
-3.040000e+00 -1.665362e-20
-3.030000e+00 -1.655563e-20
-3.020000e+00 -1.598313e-20
-3.010000e+00 -1.490913e-20
-3.000000e+00 -1.331894e-20
-2.990000e+00 -1.121161e-20
-2.980000e+00 -8.601274e-21
-2.970000e+00 -5.517997e-21
-2.960000e+00 -2.008292e-21
-2.950000e+00 1.864840e-21
-2.940000e+00 6.022372e-21
-2.930000e+00 1.037025e-20
-2.920000e+00 1.480089e-20
-2.910000e+00 1.919534e-20
-2.900000e+00 2.342576e-20
-2.890000e+00 2.735863e-20
-2.880000e+00 3.085823e-20
-2.870000e+00 3.379054e-20
-2.860000e+00 3.602737e-20
-2.850000e+00 3.745081e-20
-2.840000e+00 3.795747e-20
-2.830000e+00 3.746276e-20
-2.820000e+00 3.590507e-20
-2.810000e+00 3.324932e-20
-2.800000e+00 2.949010e-20
-2.790000e+00 2.465417e-20
-2.780000e+00 1.880212e-20
-2.770000e+00 1.202907e-20
-2.760000e+00 4.464405e-21
-2.750000e+00 -3.729620e-21
-2.740000e+00 -1.236042e-20
-2.730000e+00 -2.120876e-20
-2.720000e+00 -3.003358e-20
-2.710000e+00 -3.857790e-20
-2.700000e+00 -4.657565e-20
-2.690000e+00 -5.375938e-20
-2.680000e+00 -5.986851e-20
-2.670000e+00 -6.465821e-20
-2.660000e+00 -6.790817e-20
-2.650000e+00 -6.943143e-20
-2.640000e+00 -6.908285e-20
-2.630000e+00 -6.676673e-20
-2.620000e+00 -6.244345e-20
-2.610000e+00 -5.613483e-20
-2.600000e+00 -4.792780e-20
-2.590000e+00 -3.797618e-20
-2.580000e+00 -2.650053e-20
-2.570000e+00 -1.378547e-20
-2.560000e+00 -1.748506e-22
-2.550000e+00 1.393561e-20
-2.540000e+00 2.810791e-20
-2.530000e+00 4.187371e-20
-2.520000e+00 5.474828e-20
-2.510000e+00 6.624608e-20
-2.500000e+00 7.589767e-20
-2.490000e+00 8.326768e-20
-2.480000e+00 8.797295e-20
-2.470000e+00 8.970024e-20
-2.460000e+00 8.822358e-20
-2.450000e+00 8.341948e-20
-2.440000e+00 7.528004e-20
-2.430000e+00 6.392345e-20
-2.420000e+00 4.960058e-20
-2.410000e+00 3.269766e-20
-2.400000e+00 1.373436e-20
-2.390000e+00 -6.643204e-21
-2.380000e+00 -2.767448e-20
-2.370000e+00 -4.850191e-20
-2.360000e+00 -6.819331e-20
-2.350000e+00 -8.576950e-20
-2.340000e+00 -1.002362e-19
-2.330000e+00 -1.106195e-19
-2.320000e+00 -1.160047e-19
-2.310000e+00 -1.155767e-19
-2.300000e+00 -1.086612e-19
-2.290000e+00 -9.476565e-20
-2.280000e+00 -7.361694e-20
-2.270000e+00 -4.519679e-20
-2.260000e+00 -9.771427e-21
-2.250000e+00 3.208582e-20
-2.240000e+00 7.947980e-20
-2.230000e+00 1.311883e-19
-2.220000e+00 1.856679e-19
-2.210000e+00 2.410714e-19
-2.200000e+00 2.952779e-19
-2.190000e+00 3.459344e-19
-2.180000e+00 3.905121e-19
-2.170000e+00 4.263733e-19
-2.160000e+00 4.508499e-19
-2.150000e+00 4.613322e-19
-2.140000e+00 4.553655e-19
-2.130000e+00 4.307517e-19
-2.120000e+00 3.856569e-19
-2.110000e+00 3.187149e-19
-2.100000e+00 2.291309e-19
-2.090000e+00 1.167758e-19
-2.080000e+00 -1.772785e-20
-2.070000e+00 -1.729370e-19
-2.060000e+00 -3.465351e-19
-2.050000e+00 -5.353033e-19
-2.040000e+00 -7.351139e-19
-2.030000e+00 -9.409556e-19
-2.020000e+00 -1.146986e-18
-2.010000e+00 -1.346614e-18
-2.000000e+00 -1.532622e-18
-1.990000e+00 -1.697316e-18
-1.980000e+00 -1.832700e-18
-1.970000e+00 -1.930694e-18
-1.960000e+00 -1.983369e-18
-1.950000e+00 -1.983199e-18
-1.940000e+00 -1.923344e-18
-1.930000e+00 -1.797925e-18
-1.920000e+00 -1.602312e-18
-1.910000e+00 -1.333405e-18
-1.900000e+00 -9.898978e-19
-1.890000e+00 -5.725173e-19
-1.880000e+00 -8.423125e-20
-1.870000e+00 4.695867e-19
-1.860000e+00 1.081046e-18
-1.850000e+00 1.739686e-18
-1.840000e+00 2.432494e-18
-1.830000e+00 3.143993e-18
-1.820000e+00 3.856413e-18
-1.810000e+00 4.549943e-18
-1.800000e+00 5.203065e-18
-1.790000e+00 5.792977e-18
-1.780000e+00 6.296084e-18
-1.770000e+00 6.688567e-18
-1.760000e+00 6.947021e-18
-1.750000e+00 7.049140e-18
-1.740000e+00 6.974444e-18
-1.730000e+00 6.705020e-18
-1.720000e+00 6.226295e-18
-1.710000e+00 5.527756e-18
-1.700000e+00 4.603661e-18
-1.690000e+00 3.453688e-18
-1.680000e+00 2.083493e-18
-1.670000e+00 5.051671e-19
-1.660000e+00 -1.262427e-18
-1.650000e+00 -3.193469e-18
-1.640000e+00 -5.255169e-18
-1.630000e+00 -7.407920e-18
-1.620000e+00 -9.605661e-18
-1.610000e+00 -1.179644e-17
-1.600000e+00 -1.392317e-17
-1.590000e+00 -1.592462e-17
-1.580000e+00 -1.773656e-17
-1.570000e+00 -1.929317e-17
-1.560000e+00 -2.052853e-17
-1.550000e+00 -2.137830e-17
-1.540000e+00 -2.178158e-17
-1.530000e+00 -2.168268e-17
-1.520000e+00 -2.103313e-17
-1.510000e+00 -1.979355e-17
-1.500000e+00 -1.793553e-17
-1.490000e+00 -1.544337e-17
-1.480000e+00 -1.231569e-17
-1.470000e+00 -8.566828e-18
-1.460000e+00 -4.227929e-18
-1.450000e+00 6.522070e-19
-1.440000e+00 6.006721e-18
-1.430000e+00 1.175064e-17
-1.420000e+00 1.778130e-17
-1.410000e+00 2.397925e-17
-1.400000e+00 3.020955e-17
-1.390000e+00 3.632379e-17
-1.380000e+00 4.216232e-17
-1.370000e+00 4.755725e-17
-1.360000e+00 5.233567e-17
-1.350000e+00 5.632346e-17
-1.340000e+00 5.934931e-17
-1.330000e+00 6.124924e-17
-1.320000e+00 6.187118e-17
-1.310000e+00 6.107957e-17
-1.300000e+00 5.876028e-17
-1.290000e+00 5.482513e-17
-1.280000e+00 4.921654e-17
-1.270000e+00 4.191143e-17
-1.260000e+00 3.292497e-17
-1.250000e+00 2.231360e-17
-1.240000e+00 1.017742e-17
-1.230000e+00 -3.338320e-18
-1.220000e+00 -1.804261e-17
-1.210000e+00 -3.369918e-17
-1.200000e+00 -5.002797e-17
-1.190000e+00 -6.670785e-17
-1.180000e+00 -8.338067e-17
-1.170000e+00 -9.965610e-17
-1.160000e+00 -1.151182e-16
-1.150000e+00 -1.293327e-16
-1.140000e+00 -1.418557e-16
-1.130000e+00 -1.522429e-16
-1.120000e+00 -1.600603e-16
-1.110000e+00 -1.648945e-16
-1.100000e+00 -1.663649e-16
-1.090000e+00 -1.641351e-16
-1.080000e+00 -1.579241e-16
-1.070000e+00 -1.475181e-16
-1.060000e+00 -1.327815e-16
-1.050000e+00 -1.136662e-16
-1.040000e+00 -9.022072e-17
-1.030000e+00 -6.259748e-17
-1.020000e+00 -3.105827e-17
-1.010000e+00 4.022340e-18
-1.000000e+00 4.215568e-17
-9.900002e-01 8.274036e-17
-9.800000e-01 1.250664e-16
-9.700003e-01 1.683217e-16
-9.600000e-01 2.116023e-16
-9.500003e-01 2.539246e-16
-9.400001e-01 2.942413e-16
-9.300003e-01 3.314596e-16
-9.200001e-01 3.644623e-16
-9.100003e-01 3.921310e-16
-9.000001e-01 4.133715e-16
-8.900003e-01 4.271411e-16
-8.800001e-01 4.324759e-16
-8.700004e-01 4.285204e-16
-8.600001e-01 4.145557e-16
-8.500004e-01 3.900279e-16
-8.400002e-01 3.545741e-16
-8.299999e-01 3.080474e-16
-8.200002e-01 2.505390e-16
-8.099999e-01 1.823959e-16
-8.000002e-01 1.042352e-16
-7.900000e-01 1.695264e-17
-7.800002e-01 -7.827332e-17
-7.700000e-01 -1.799845e-16
-7.600002e-01 -2.864520e-16
-7.500000e-01 -3.956928e-16
-7.400002e-01 -5.054924e-16
-7.300000e-01 -6.134359e-16
-7.200003e-01 -7.169450e-16
-7.100000e-01 -8.133229e-16
-7.000003e-01 -8.998052e-16
-6.900001e-01 -9.736152e-16
-6.800003e-01 -1.032028e-15
-6.700001e-01 -1.072436e-15
-6.600003e-01 -1.092412e-15
-6.500001e-01 -1.089789e-15
-6.400003e-01 -1.062721e-15
-6.300001e-01 -1.009757e-15
-6.200004e-01 -9.299063e-16
-6.100001e-01 -8.226956e-16
-6.000004e-01 -6.882258e-16
-5.900002e-01 -5.272156e-16
-5.800004e-01 -3.410381e-16
-5.700002e-01 -1.317416e-16
-5.599999e-01 9.793904e-17
-5.500002e-01 3.445886e-16
-5.400000e-01 6.041322e-16
-5.300002e-01 8.718722e-16
-5.200000e-01 1.142544e-15
-5.100002e-01 1.410386e-15
-5.000000e-01 1.669233e-15
-4.900002e-01 1.912616e-15
-4.800000e-01 2.133886e-15
-4.700003e-01 2.326349e-15
-4.600000e-01 2.483410e-15
-4.500003e-01 2.598729e-15
-4.400001e-01 2.666388e-15
-4.300003e-01 2.681050e-15
-4.200001e-01 2.638132e-15
-4.100003e-01 2.533957e-15
-4.000001e-01 2.365921e-15
-3.900003e-01 2.132626e-15
-3.800001e-01 1.834008e-15
-3.700004e-01 1.471450e-15
-3.600001e-01 1.047853e-15
-3.500004e-01 5.676985e-16
-3.400002e-01 3.706976e-17
-3.300004e-01 -5.363630e-16
-3.200002e-01 -1.143386e-15
-3.099999e-01 -1.773333e-15
-3.000002e-01 -2.414204e-15
-2.900000e-01 -3.052841e-15
-2.800002e-01 -3.675117e-15
-2.700000e-01 -4.266190e-15
-2.600002e-01 -4.810769e-15
-2.500000e-01 -5.293424e-15
-2.400002e-01 -5.698915e-15
-2.300000e-01 -6.012547e-15
-2.200003e-01 -6.220527e-15
-2.100000e-01 -6.310347e-15
-2.000003e-01 -6.271152e-15
-1.900001e-01 -6.094097e-15
-1.800003e-01 -5.772694e-15
-1.700001e-01 -5.303127e-15
-1.600003e-01 -4.684534e-15
-1.500001e-01 -3.919232e-15
-1.400003e-01 -3.012906e-15
-1.300001e-01 -1.974720e-15
-1.200004e-01 -8.173694e-16
-1.100001e-01 4.429479e-16
-1.000004e-01 1.786636e-15
-9.000015e-02 3.190892e-15
-8.000040e-02 4.629968e-15
-7.000017e-02 6.075546e-15
-5.999994e-02 7.497155e-15
-5.000019e-02 8.862705e-15
-3.999996e-02 1.013906e-14
-3.000021e-02 1.129269e-14
-1.999998e-02 1.229038e-14
-1.000023e-02 1.309995e-14
0.000000e+00 1.369109e-14
1.000023e-02 1.403602e-14
1.999950e-02 1.411041e-14
2.999973e-02 1.389399e-14
3.999996e-02 1.337141e-14
5.000019e-02 1.253275e-14
5.999947e-02 1.137418e-14
6.999969e-02 9.898448e-15
7.999992e-02 8.115187e-15
9.000015e-02 6.041207e-15
9.999943e-02 3.700585e-15
1.099997e-01 1.124599e-15
1.199999e-01 -1.648450e-15
1.300001e-01 -4.573639e-15
1.399994e-01 -7.599948e-15
1.499996e-01 -1.067096e-14
1.599998e-01 -1.372574e-14
1.700001e-01 -1.669983e-14
1.799994e-01 -1.952642e-14
1.899996e-01 -2.213758e-14
1.999998e-01 -2.446567e-14
2.100000e-01 -2.644477e-14
2.200003e-01 -2.801215e-14
2.299995e-01 -2.910982e-14
2.399998e-01 -2.968598e-14
2.500000e-01 -2.969652e-14
2.600002e-01 -2.910640e-14
2.699995e-01 -2.789081e-14
2.799997e-01 -2.603642e-14
2.900000e-01 -2.354222e-14
3.000002e-01 -2.042028e-14
3.099995e-01 -1.669623e-14
3.199997e-01 -1.240951e-14
3.299999e-01 -7.613297e-15
3.400002e-01 -2.374200e-15
3.499994e-01 3.228389e-15
3.599997e-01 9.103237e-15
3.699999e-01 1.514846e-14
3.800001e-01 2.125310e-14
3.899994e-01 2.729882e-14
3.999996e-01 3.316201e-14
4.099998e-01 3.871596e-14
4.200001e-01 4.383334e-14
4.299994e-01 4.838863e-14
4.399996e-01 5.226088e-14
4.499998e-01 5.533628e-14
4.600000e-01 5.751087e-14
4.700003e-01 5.869309e-14
4.799995e-01 5.880624e-14
4.899998e-01 5.779069e-14
5.000000e-01 5.560598e-14
5.100002e-01 5.223248e-14
5.199995e-01 4.767283e-14
5.299997e-01 4.195287e-14
5.400000e-01 3.512229e-14
5.500002e-01 2.725474e-14
5.599995e-01 1.844747e-14
5.699997e-01 8.820498e-15
5.799999e-01 -1.484639e-15
5.900002e-01 -1.230673e-14
5.999994e-01 -2.346713e-14
6.099997e-01 -3.477239e-14
6.199999e-01 -4.601740e-14
6.300001e-01 -5.698880e-14
6.399994e-01 -6.746862e-14
6.499996e-01 -7.723835e-14
6.599998e-01 -8.608296e-14
6.700001e-01 -9.379519e-14
6.799994e-01 -1.001797e-13
6.899996e-01 -1.050569e-13
6.999998e-01 -1.082677e-13
7.100000e-01 -1.096765e-13
7.200003e-01 -1.091748e-13
7.299995e-01 -1.066844e-13
7.399998e-01 -1.021598e-13
7.500000e-01 -9.559030e-14
7.600002e-01 -8.700147e-14
7.699995e-01 -7.645596e-14
7.799997e-01 -6.405374e-14
7.900000e-01 -4.993154e-14
8.000002e-01 -3.426192e-14
8.099995e-01 -1.725117e-14
8.199997e-01 8.630040e-16
8.299999e-01 1.981461e-14
8.400002e-01 3.931299e-14
8.499994e-01 5.904706e-14
8.599997e-01 7.869012e-14
8.699999e-01 9.790447e-14
8.800001e-01 1.163472e-13
8.899994e-01 1.336758e-13
8.999996e-01 1.495531e-13
9.099998e-01 1.636543e-13
9.200001e-01 1.756711e-13
9.299994e-01 1.853186e-13
9.399996e-01 1.923396e-13
9.499998e-01 1.965100e-13
9.600000e-01 1.976433e-13
9.700003e-01 1.955941e-13
9.799995e-01 1.902623e-13
9.899998e-01 1.815955e-13
1.000000e+00 1.695911e-13
1.010000e+00 1.542980e-13
1.020000e+00 1.358174e-13
1.030000e+00 1.143027e-13
1.040000e+00 8.995901e-14
1.050000e+00 6.304120e-14
1.059999e+00 3.385247e-14
1.070000e+00 2.741072e-15
1.080000e+00 -2.990302e-14
1.090000e+00 -6.365228e-14
1.099999e+00 -9.804591e-14
1.110000e+00 -1.325956e-13
1.120000e+00 -1.667907e-13
1.130000e+00 -2.001043e-13
1.139999e+00 -2.319998e-13
1.150000e+00 -2.619374e-13
1.160000e+00 -2.893812e-13
1.170000e+00 -3.138059e-13
1.179999e+00 -3.347045e-13
1.190000e+00 -3.515951e-13
1.200000e+00 -3.640286e-13
1.210000e+00 -3.715954e-13
1.220000e+00 -3.739331e-13
1.230000e+00 -3.707329e-13
1.240000e+00 -3.617464e-13
1.250000e+00 -3.467922e-13
1.260000e+00 -3.257614e-13
1.270000e+00 -2.986236e-13
1.280000e+00 -2.654318e-13
1.290000e+00 -2.263258e-13
1.300000e+00 -1.815373e-13
1.309999e+00 -1.313912e-13
1.320000e+00 -7.630830e-14
1.330000e+00 -1.680543e-14
1.340000e+00 4.650475e-14
1.349999e+00 1.129156e-13
1.360000e+00 1.816295e-13
1.370000e+00 2.517632e-13
1.380000e+00 3.223528e-13
1.389999e+00 3.923630e-13
1.400000e+00 4.606962e-13
1.410000e+00 5.262040e-13
1.420000e+00 5.877001e-13
1.429999e+00 6.439755e-13
1.440000e+00 6.938158e-13
1.450000e+00 7.360181e-13
1.460000e+00 7.694123e-13
1.469999e+00 7.928800e-13
1.480000e+00 8.053782e-13
1.490000e+00 8.059619e-13
1.500000e+00 7.938055e-13
1.510000e+00 7.682279e-13
1.520000e+00 7.287146e-13
1.530000e+00 6.749384e-13
1.540000e+00 6.067809e-13
1.550000e+00 5.243516e-13
1.559999e+00 4.280031e-13
1.570000e+00 3.183447e-13
1.580000e+00 1.962517e-13
1.590000e+00 6.287258e-14
1.599999e+00 -8.037111e-14
1.610000e+00 -2.317875e-13
1.620000e+00 -3.894230e-13
1.630000e+00 -5.510770e-13
1.639999e+00 -7.143222e-13
1.650000e+00 -8.765289e-13
1.660000e+00 -1.034899e-12
1.670000e+00 -1.186501e-12
1.679999e+00 -1.328314e-12
1.690000e+00 -1.457276e-12
1.700000e+00 -1.570335e-12
1.710000e+00 -1.664506e-12
1.719999e+00 -1.736927e-12
1.730000e+00 -1.784926e-12
1.740000e+00 -1.806078e-12
1.750000e+00 -1.798267e-12
1.760000e+00 -1.759751e-12
1.770000e+00 -1.689213e-12
1.780000e+00 -1.585820e-12
1.790000e+00 -1.449268e-12
1.800000e+00 -1.279824e-12
1.809999e+00 -1.078359e-12
1.820000e+00 -8.463710e-13
1.830000e+00 -5.860011e-13
1.840000e+00 -3.000298e-13
1.849999e+00 8.129745e-15
1.860000e+00 3.344567e-13
1.870000e+00 6.743593e-13
1.880000e+00 1.022726e-12
1.889999e+00 1.373987e-12
1.900000e+00 1.722194e-12
1.910000e+00 2.061106e-12
1.920000e+00 2.384291e-12
1.929999e+00 2.685231e-12
1.940000e+00 2.957447e-12
1.950000e+00 3.194615e-12
1.960000e+00 3.390697e-12
1.969999e+00 3.540070e-12
1.980000e+00 3.637656e-12
1.990000e+00 3.679044e-12
2.000000e+00 3.660605e-12
2.010000e+00 3.579615e-12
2.020000e+00 3.434337e-12
2.030000e+00 3.224115e-12
2.040000e+00 2.949433e-12
2.050000e+00 2.611971e-12
2.059999e+00 2.214623e-12
2.070000e+00 1.761506e-12
2.080000e+00 1.257936e-12
2.090000e+00 7.103838e-13
2.099999e+00 1.264081e-13
2.110000e+00 -4.854437e-13
2.120000e+00 -1.115753e-12
2.130000e+00 -1.754372e-12
2.139999e+00 -2.390586e-12
2.150000e+00 -3.013295e-12
2.160000e+00 -3.611209e-12
2.170000e+00 -4.173061e-12
2.179999e+00 -4.687818e-12
2.190000e+00 -5.144904e-12
2.200000e+00 -5.534427e-12
2.210000e+00 -5.847389e-12
2.219999e+00 -6.075894e-12
2.230000e+00 -6.213335e-12
2.240000e+00 -6.254576e-12
2.250000e+00 -6.196096e-12
2.260000e+00 -6.036108e-12
2.270000e+00 -5.774650e-12
2.280000e+00 -5.413644e-12
2.290000e+00 -4.956912e-12
2.300000e+00 -4.410149e-12
2.309999e+00 -3.780869e-12
2.320000e+00 -3.078298e-12
2.330000e+00 -2.313239e-12
2.340000e+00 -1.497888e-12
2.349999e+00 -6.456208e-13
2.360000e+00 2.292538e-13
2.370000e+00 1.111768e-12
2.380000e+00 1.986593e-12
2.389999e+00 2.838355e-12
2.400000e+00 3.651952e-12
2.410000e+00 4.412892e-12
2.420000e+00 5.107611e-12
2.429999e+00 5.723783e-12
2.440000e+00 6.250625e-12
2.450000e+00 6.679151e-12
2.460000e+00 7.002413e-12
2.469999e+00 7.215696e-12
2.480000e+00 7.316662e-12
2.490000e+00 7.305449e-12
2.500000e+00 7.184696e-12
2.510000e+00 6.959554e-12
2.520000e+00 6.637577e-12
2.530000e+00 6.228602e-12
2.540000e+00 5.744532e-12
2.550000e+00 5.199084e-12
2.559999e+00 4.607481e-12
2.570000e+00 3.986072e-12
2.580000e+00 3.351952e-12
2.590000e+00 2.722494e-12
2.599999e+00 2.114904e-12
2.610000e+00 1.545735e-12
2.620000e+00 1.030399e-12
2.630000e+00 5.826919e-13
2.639999e+00 2.143377e-13
2.650000e+00 -6.544335e-14
2.660000e+00 -2.503146e-13
2.670000e+00 -3.371536e-13
2.679999e+00 -3.263147e-13
2.690000e+00 -2.218170e-13
2.700000e+00 -3.144715e-14
2.710000e+00 2.332255e-13
2.719999e+00 5.569343e-13
2.730000e+00 9.208999e-13
2.740000e+00 1.303110e-12
2.750000e+00 1.678709e-12
2.760000e+00 2.020475e-12
2.770000e+00 2.299394e-12
2.780000e+00 2.485312e-12
2.790000e+00 2.547667e-12
2.800000e+00 2.456274e-12
2.809999e+00 2.182161e-12
2.820000e+00 1.698430e-12
2.830000e+00 9.811381e-13
2.840000e+00 1.016293e-14
2.849999e+00 -1.229950e-12
2.860000e+00 -2.749193e-12
2.870000e+00 -4.551363e-12
2.880000e+00 -6.633413e-12
2.889999e+00 -8.984920e-12
2.900000e+00 -1.158765e-11
2.910000e+00 -1.441528e-11
2.920000e+00 -1.743330e-11
2.929999e+00 -2.059901e-11
2.940000e+00 -2.386173e-11
2.950000e+00 -2.716319e-11
2.960000e+00 -3.043811e-11
2.969999e+00 -3.361488e-11
2.980000e+00 -3.661657e-11
2.990000e+00 -3.936195e-11
3.000000e+00 -4.176668e-11