-8.000000e+00 0.000000e+00
-7.990000e+00 0.000000e+00
-7.980000e+00 0.000000e+00
-7.970000e+00 0.000000e+00
-7.960000e+00 0.000000e+00
-7.950000e+00 0.000000e+00
-7.940000e+00 0.000000e+00
-7.930000e+00 0.000000e+00
-7.920000e+00 0.000000e+00
-7.910000e+00 0.000000e+00
-7.900000e+00 0.000000e+00
-7.890000e+00 -2.662467e-44
-7.880000e+00 -3.180948e-43
-7.870000e+00 -2.366793e-42
-7.860000e+00 -1.416432e-41
-7.850000e+00 -7.033537e-41
-7.840000e+00 -3.026300e-40
-7.830000e+00 -1.158602e-39
-7.820000e+00 -4.023403e-39
-7.810000e+00 -1.285812e-38
-7.800000e+00 -3.824470e-38
-7.790000e+00 -1.068220e-37
-7.780000e+00 -2.822295e-37
-7.770000e+00 -7.095802e-37
-7.760000e+00 -1.706233e-36
-7.750000e+00 -3.940570e-36
-7.740000e+00 -8.772901e-36
-7.730000e+00 -1.888659e-35
-7.720000e+00 -3.942515e-35
-7.710000e+00 -7.999084e-35
-7.700000e+00 -1.580760e-34
-7.690000e+00 -3.048308e-34
-7.680000e+00 -5.745592e-34
-7.670000e+00 -1.060073e-33
-7.660000e+00 -1.917056e-33
-7.650000e+00 -3.402096e-33
-7.640000e+00 -5.931129e-33
-7.630000e+00 -1.016780e-32
-7.620000e+00 -1.715520e-32
-7.610000e+00 -2.850943e-32
-7.600000e+00 -4.670045e-32
-7.590000e+00 -7.545347e-32
-7.580000e+00 -1.203164e-31
-7.570000e+00 -1.894513e-31
-7.560000e+00 -2.947242e-31
-7.550000e+00 -4.531908e-31
-7.540000e+00 -6.890935e-31
-7.530000e+00 -1.036515e-30
-7.520000e+00 -1.542871e-30
-7.510000e+00 -2.273441e-30
-7.500000e+00 -3.317190e-30
-7.490000e+00 -4.794137e-30
-7.480000e+00 -6.864615e-30
-7.470000e+00 -9.740720e-30
-7.460000e+00 -1.370029e-29
-7.450000e+00 -1.910379e-29
-7.440000e+00 -2.641441e-29
-7.430000e+00 -3.622154e-29
-7.420000e+00 -4.926794e-29
-7.410000e+00 -6.648071e-29
-7.400000e+00 -8.900494e-29
-7.390000e+00 -1.182417e-28
-7.380000e+00 -1.558869e-28
-7.370000e+00 -2.039715e-28
-7.360000e+00 -2.649014e-28
-7.350000e+00 -3.414935e-28
-7.340000e+00 -4.370055e-28
-7.330000e+00 -5.551569e-28
-7.320000e+00 -7.001341e-28
-7.310000e+00 -8.765748e-28
-7.300000e+00 -1.089532e-27
-7.290000e+00 -1.344393e-27
-7.280000e+00 -1.646778e-27
-7.270000e+00 -2.002370e-27
-7.260000e+00 -2.416701e-27
-7.250000e+00 -2.894879e-27
-7.240000e+00 -3.441239e-27
-7.230000e+00 -4.058923e-27
-7.220000e+00 -4.749386e-27
-7.210000e+00 -5.511832e-27
-7.200000e+00 -6.342572e-27
-7.190000e+00 -7.234322e-27
-7.180000e+00 -8.175464e-27
-7.170000e+00 -9.149267e-27
-7.160000e+00 -1.013312e-26
-7.150000e+00 -1.109781e-26
-7.140000e+00 -1.200683e-26
-7.130000e+00 -1.281592e-26
-7.120000e+00 -1.347265e-26
-7.110000e+00 -1.391636e-26
-7.100000e+00 -1.407836e-26
-7.090000e+00 -1.388254e-26
-7.080000e+00 -1.324638e-26
-7.070000e+00 -1.208247e-26
-7.060000e+00 -1.030067e-26
-7.050000e+00 -7.810759e-27
-7.040000e+00 -4.525782e-27
-7.030000e+00 -3.660302e-28
-7.020000e+00 4.736377e-27
-7.010000e+00 1.083232e-26
-7.000000e+00 1.795008e-26
-6.990000e+00 2.608927e-26
-6.980000e+00 3.521459e-26
-6.970000e+00 4.524968e-26
-6.960000e+00 5.607095e-26
-6.950000e+00 6.750212e-26
-6.940000e+00 7.930931e-26
-6.930000e+00 9.119742e-26
-6.920000e+00 1.028077e-25
-6.910000e+00 1.137176e-25
-6.900000e+00 1.234415e-25
-6.890000e+00 1.314358e-25
-6.880000e+00 1.371043e-25
-6.870000e+00 1.398088e-25
-6.860000e+00 1.388808e-25
-6.850000e+00 1.336381e-25
-6.840000e+00 1.234027e-25
-6.830000e+00 1.075241e-25
-6.820000e+00 8.540314e-26
-6.810000e+00 5.652018e-26
-6.800000e+00 2.046497e-26
-6.790000e+00 -2.303177e-26
-6.780000e+00 -7.406519e-26
-6.770000e+00 -1.325233e-25
-6.760000e+00 -1.980531e-25
-6.750000e+00 -2.700288e-25
-6.740000e+00 -3.475211e-25
-6.730000e+00 -4.292701e-25
-6.720000e+00 -5.136618e-25
-6.710000e+00 -5.987089e-25
-6.700000e+00 -6.820398e-25
-6.690000e+00 -7.608931e-25
-6.680000e+00 -8.321240e-25
-6.670000e+00 -8.922172e-25
-6.660000e+00 -9.373149e-25
-6.650000e+00 -9.632614e-25
-6.640000e+00 -9.656599e-25
-6.630000e+00 -9.399485e-25
-6.620000e+00 -8.815016e-25
-6.610000e+00 -7.857476e-25
-6.600000e+00 -6.483190e-25
-6.590000e+00 -4.652271e-25
-6.580000e+00 -2.330645e-25
-6.570000e+00 5.076011e-26
-6.560000e+00 3.877582e-25
-6.550000e+00 7.780681e-25
-6.540000e+00 1.220141e-24
-6.530000e+00 1.710404e-24
-6.520000e+00 2.242913e-24
-6.510000e+00 2.809007e-24
-6.500000e+00 3.396981e-24
-6.490000e+00 3.991786e-24
-6.480000e+00 4.574788e-24
-6.470000e+00 5.123622e-24
-6.460000e+00 5.612115e-24
-6.450000e+00 6.010432e-24
-6.440000e+00 6.285298e-24
-6.430000e+00 6.400521e-24
-6.420000e+00 6.317702e-24
-6.410000e+00 5.997254e-24
-6.400000e+00 5.399705e-24
-6.390000e+00 4.487327e-24
-6.380000e+00 3.226077e-24
-6.370000e+00 1.587861e-24
-6.360000e+00 -4.469126e-25
-6.350000e+00 -2.886550e-24
-6.340000e+00 -5.725113e-24
-6.330000e+00 -8.939384e-24
-6.320000e+00 -1.248589e-23
-6.310000e+00 -1.629809e-23
-6.300000e+00 -2.028401e-23
-6.290000e+00 -2.432437e-23
-6.280000e+00 -2.827151e-23
-6.270000e+00 -3.194942e-23
-6.260000e+00 -3.515491e-23
-6.250000e+00 -3.766034e-23
-6.240000e+00 -3.921799e-23
-6.230000e+00 -3.956627e-23
-6.220000e+00 -3.843808e-23
-6.210000e+00 -3.557100e-23
-6.200000e+00 -3.071958e-23
-6.190000e+00 -2.366971e-23
-6.180000e+00 -1.425430e-23
-6.170000e+00 -2.370500e-24
-6.160000e+00 1.200224e-23
-6.150000e+00 2.878420e-23
-6.140000e+00 4.777790e-23
-6.130000e+00 6.865224e-23
-6.120000e+00 9.092916e-23
-6.110000e+00 1.139743e-22
-6.100000e+00 1.369925e-22
-6.090000e+00 1.590289e-22
-6.080000e+00 1.789782e-22
-6.070000e+00 1.956022e-22
-6.060000e+00 2.075560e-22
-6.050000e+00 2.134244e-22
-6.040000e+00 2.117690e-22
-6.030000e+00 2.011855e-22
-6.020000e+00 1.803696e-22
-6.010000e+00 1.481934e-22
-6.000000e+00 1.037867e-22
-5.990000e+00 4.662488e-23
-5.980000e+00 -2.338261e-23
-5.970000e+00 -1.058056e-22
-5.960000e+00 -1.996113e-22
-5.950000e+00 -3.030946e-22
-5.940000e+00 -4.138225e-22
-5.930000e+00 -5.286008e-22
-5.920000e+00 -6.434653e-22
-5.910000e+00 -7.537072e-22
-5.900000e+00 -8.539308e-22
-5.890000e+00 -9.381554e-22
-5.880000e+00 -9.999565e-22
-5.870000e+00 -1.032656e-21
-5.860000e+00 -1.029554e-21
-5.850000e+00 -9.842032e-22
-5.840000e+00 -8.907256e-22
-5.830000e+00 -7.441585e-22
-5.820000e+00 -5.408250e-22
-5.810000e+00 -2.787150e-22
-5.800000e+00 4.213328e-23
-5.790000e+00 4.192726e-22
-5.780000e+00 8.475242e-22
-5.770000e+00 1.318707e-21
-5.760000e+00 1.821452e-21
-5.750000e+00 2.341110e-21
-5.740000e+00 2.859782e-21
-5.730000e+00 3.356485e-21
-5.720000e+00 3.807481e-21
-5.710000e+00 4.186756e-21
-5.700000e+00 4.466707e-21
-5.690000e+00 4.618955e-21
-5.680000e+00 4.615397e-21
-5.670000e+00 4.429352e-21
-5.660000e+00 4.036885e-21
-5.650000e+00 3.418215e-21
-5.640000e+00 2.559208e-21
-5.630000e+00 1.452867e-21
-5.620000e+00 1.007879e-22
-5.610000e+00 -1.485485e-21
-5.600000e+00 -3.283302e-21
-5.590000e+00 -5.257984e-21
-5.580000e+00 -7.362245e-21
-5.570000e+00 -9.536000e-21
-5.560000e+00 -1.170670e-20
-5.550000e+00 -1.379012e-20
-5.540000e+00 -1.569183e-20
-5.530000e+00 -1.730923e-20
-5.520000e+00 -1.853423e-20
-5.510000e+00 -1.925665e-20
-5.500000e+00 -1.936798e-20
-5.490000e+00 -1.876599e-20
-5.480000e+00 -1.735958e-20
-5.470000e+00 -1.507392e-20
-5.460000e+00 -1.185589e-20
-5.450000e+00 -7.679386e-21
-5.440000e+00 -2.550464e-21
-5.430000e+00 3.488079e-21
-5.420000e+00 1.035272e-20
-5.410000e+00 1.791632e-20
-5.400000e+00 2.600628e-20
-5.390000e+00 3.440442e-20
-5.380000e+00 4.284830e-20
-5.370000e+00 5.103447e-20
-5.360000e+00 5.862395e-20
-5.350000e+00 6.524941e-20
-5.340000e+00 7.052486e-20
-5.330000e+00 7.405713e-20
-5.320000e+00 7.545948e-20
-5.310000e+00 7.436644e-20
-5.300000e+00 7.045064e-20
-5.290000e+00 6.343981e-20
-5.280000e+00 5.313490e-20
-5.270000e+00 3.942702e-20
-5.260000e+00 2.231447e-20
-5.250000e+00 1.917350e-21
-5.240000e+00 -2.150988e-20
-5.230000e+00 -4.756923e-20
-5.220000e+00 -7.571388e-20
-5.210000e+00 -1.052478e-19
-5.200000e+00 -1.353300e-19
-5.190000e+00 -1.649860e-19
-5.180000e+00 -1.931243e-19
-5.170000e+00 -2.185592e-19
-5.160000e+00 -2.400411e-19
-5.150000e+00 -2.562921e-19
-5.140000e+00 -2.660477e-19
-5.130000e+00 -2.681023e-19
-5.120000e+00 -2.613597e-19
-5.110000e+00 -2.448857e-19
-5.100000e+00 -2.179608e-19
-5.090000e+00 -1.801330e-19
-5.080000e+00 -1.312669e-19
-5.070000e+00 -7.158814e-20
-5.060000e+00 -1.720230e-21
-5.050000e+00 7.728778e-20
-5.040000e+00 1.639450e-19
-5.030000e+00 2.563170e-19
-5.020000e+00 3.520374e-19
-5.010000e+00 4.483384e-19
-5.000000e+00 5.420960e-19
-4.990000e+00 6.298964e-19
-4.980000e+00 7.081157e-19
-4.970000e+00 7.730214e-19
-4.960000e+00 8.208843e-19
-4.950000e+00 8.481069e-19
-4.940000e+00 8.513596e-19
-4.930000e+00 8.277244e-19
-4.920000e+00 7.748395e-19
-4.910000e+00 6.910419e-19
-4.900000e+00 5.755012e-19
-4.890000e+00 4.283411e-19
-4.880000e+00 2.507372e-19
-4.870000e+00 4.499725e-20
-4.860000e+00 -1.853966e-19
-4.850000e+00 -4.357761e-19
-4.840000e+00 -7.003151e-19
-4.830000e+00 -9.721032e-19
-4.820000e+00 -1.243258e-18
-4.810000e+00 -1.505087e-18
-4.800000e+00 -1.748295e-18
-4.790000e+00 -1.963226e-18
-4.780000e+00 -2.140150e-18
-4.770000e+00 -2.269576e-18
-4.760000e+00 -2.342591e-18
-4.750000e+00 -2.351216e-18
-4.740000e+00 -2.288752e-18
-4.730000e+00 -2.150147e-18
-4.720000e+00 -1.932301e-18
-4.710000e+00 -1.634376e-18
-4.700000e+00 -1.258026e-18
-4.690000e+00 -8.075946e-19
-4.680000e+00 -2.902124e-19
-4.670000e+00 2.841703e-19
-4.660000e+00 9.028531e-19
-4.650000e+00 1.550551e-18
-4.640000e+00 2.209667e-18
-4.630000e+00 2.860659e-18
-4.620000e+00 3.482524e-18
-4.610000e+00 4.053351e-18
-4.600000e+00 4.550986e-18
-4.590000e+00 4.953725e-18
-4.580000e+00 5.241094e-18
-4.570000e+00 5.394643e-18
-4.560000e+00 5.398717e-18
-4.550000e+00 5.241231e-18
-4.540000e+00 4.914381e-18
-4.530000e+00 4.415250e-18
-4.520000e+00 3.746339e-18
-4.510000e+00 2.915901e-18
-4.500000e+00 1.938165e-18
-4.490000e+00 8.333181e-19
-4.480000e+00 -3.726867e-19
-4.470000e+00 -1.648554e-18
-4.460000e+00 -2.958293e-18
-4.450000e+00 -4.262076e-18
-4.440000e+00 -5.517324e-18
-4.430000e+00 -6.679938e-18
-4.420000e+00 -7.705749e-18
-4.410000e+00 -8.552047e-18
-4.400000e+00 -9.179188e-18
-4.390000e+00 -9.552250e-18
-4.380000e+00 -9.642667e-18
-4.370000e+00 -9.429695e-18
-4.360000e+00 -8.901832e-18
-4.350000e+00 -8.057948e-18
-4.340000e+00 -6.908143e-18
-4.330000e+00 -5.474287e-18
-4.320000e+00 -3.790161e-18
-4.310000e+00 -1.901180e-18
-4.300000e+00 1.363432e-19
-4.290000e+00 2.256395e-18
-4.280000e+00 4.384934e-18
-4.270000e+00 6.441983e-18
-4.260000e+00 8.344182e-18
-4.250000e+00 1.000763e-17
-4.240000e+00 1.135104e-17
-4.230000e+00 1.229908e-17
-4.220000e+00 1.278581e-17
-4.210000e+00 1.275801e-17
-4.200000e+00 1.217847e-17
-4.190000e+00 1.102881e-17
-4.180000e+00 9.312025e-18
-4.170000e+00 7.054334e-18
-4.160000e+00 4.306414e-18
-4.150000e+00 1.143752e-18
-4.140000e+00 -2.333830e-18
-4.130000e+00 -6.003679e-18
-4.120000e+00 -9.722812e-18
-4.110000e+00 -1.333140e-17
-4.100000e+00 -1.665732e-17
-4.090000e+00 -1.952146e-17
-4.080000e+00 -2.174408e-17
-4.070000e+00 -2.315162e-17
-4.060000e+00 -2.358405e-17
-4.050000e+00 -2.290256e-17
-4.040000e+00 -2.099710e-17
-4.030000e+00 -1.779371e-17
-4.020000e+00 -1.326136e-17
-4.010000e+00 -7.417798e-18
-4.000000e+00 -3.342976e-19
-3.990000e+00 7.861171e-18
-3.980000e+00 1.698230e-17
-3.970000e+00 2.678494e-17
-3.960000e+00 3.696963e-17
-3.950000e+00 4.718644e-17
-3.940000e+00 5.704210e-17
-3.930000e+00 6.610936e-17
-3.920000e+00 7.393894e-17
-3.910000e+00 8.007257e-17
-3.900000e+00 8.405913e-17
-3.890000e+00 8.547080e-17
-3.880000e+00 8.392101e-17
-3.870000e+00 7.908267e-17
-3.860000e+00 7.070561e-17
-3.850000e+00 5.863430e-17
-3.840000e+00 4.282314e-17
-3.830000e+00 2.334990e-17
-3.820000e+00 4.268161e-19
-3.810000e+00 -2.559275e-17
-3.800000e+00 -5.421058e-17
-3.790000e+00 -8.478519e-17
-3.780000e+00 -1.165382e-16
-3.770000e+00 -1.485654e-16
-3.760000e+00 -1.798542e-16
-3.750000e+00 -2.093046e-16
-3.740000e+00 -2.357575e-16
-3.730000e+00 -2.580253e-16
-3.720000e+00 -2.749277e-16
-3.710000e+00 -2.853321e-16
-3.700000e+00 -2.881924e-16
-3.690000e+00 -2.825923e-16
-3.680000e+00 -2.677885e-16
-3.670000e+00 -2.432488e-16
-3.660000e+00 -2.086922e-16
-3.650000e+00 -1.641202e-16
-3.640000e+00 -1.098450e-16
-3.630000e+00 -4.650849e-17
-3.620000e+00 2.490587e-17
-3.610000e+00 1.030721e-16
-3.600000e+00 1.863306e-16
-3.590000e+00 2.727088e-16
-3.580000e+00 3.599536e-16
-3.570000e+00 4.455747e-16
-3.560000e+00 5.269003e-16
-3.550000e+00 6.011419e-16
-3.540000e+00 6.654702e-16
-3.530000e+00 7.170962e-16
-3.520000e+00 7.533626e-16
-3.510000e+00 7.718317e-16
-3.500000e+00 7.703823e-16
-3.490000e+00 7.472992e-16
-3.480000e+00 7.013581e-16
-3.470000e+00 6.319087e-16
-3.460000e+00 5.389360e-16
-3.450000e+00 4.231178e-16
-3.440000e+00 2.858610e-16
-3.430000e+00 1.293169e-16
-3.420000e+00 -4.362104e-17
-3.410000e+00 -2.293447e-16
-3.400000e+00 -4.235829e-16
-3.390000e+00 -6.214758e-16
-3.380000e+00 -8.176749e-16
-3.370000e+00 -1.006464e-15
-3.360000e+00 -1.181903e-15
-3.350000e+00 -1.337987e-15
-3.340000e+00 -1.468823e-15
-3.330000e+00 -1.568813e-15
-3.320000e+00 -1.632847e-15
-3.310000e+00 -1.656491e-15
-3.300000e+00 -1.636168e-15
-3.290000e+00 -1.569342e-15
-3.280000e+00 -1.454655e-15
-3.270000e+00 -1.292070e-15
-3.260000e+00 -1.082960e-15
-3.250000e+00 -8.301792e-16
-3.240000e+00 -5.380786e-16
-3.230000e+00 -2.124881e-16
-3.220000e+00 1.393497e-16
-3.210000e+00 5.088987e-16
-3.200000e+00 8.864925e-16
-3.190000e+00 1.261544e-15
-3.180000e+00 1.622803e-15
-3.170000e+00 1.958648e-15
-3.160000e+00 2.257414e-15
-3.150000e+00 2.507749e-15
-3.140000e+00 2.698974e-15
-3.130000e+00 2.821480e-15
-3.120000e+00 2.867076e-15
-3.110000e+00 2.829367e-15
-3.100000e+00 2.704064e-15
-3.090000e+00 2.489292e-15
-3.080000e+00 2.185808e-15
-3.070000e+00 1.797184e-15
-3.060000e+00 1.329917e-15
-3.050000e+00 7.934209e-16
-3.040000e+00 1.999771e-16
-3.030000e+00 -4.354327e-16
-3.020000e+00 -1.095391e-15
-3.010000e+00 -1.760396e-15
-3.000000e+00 -2.409303e-15
-2.990000e+00 -3.019863e-15
-2.980000e+00 -3.569317e-15
-2.970000e+00 -4.035074e-15
-2.960000e+00 -4.395416e-15
-2.950000e+00 -4.630259e-15
-2.940000e+00 -4.721889e-15
-2.930000e+00 -4.655717e-15
-2.920000e+00 -4.420976e-15
-2.910000e+00 -4.011390e-15
-2.900000e+00 -3.425692e-15
-2.890000e+00 -2.668132e-15
-2.880000e+00 -1.748782e-15
-2.870000e+00 -6.836914e-16
-2.860000e+00 5.050502e-16
-2.850000e+00 1.789515e-15
-2.840000e+00 3.136282e-15
-2.830000e+00 4.506984e-15
-2.820000e+00 5.859035e-15
-2.810000e+00 7.146576e-15
-2.800000e+00 8.321552e-15
-2.790000e+00 9.334975e-15
-2.780000e+00 1.013830e-14
-2.770000e+00 1.068493e-14
-2.760000e+00 1.093174e-14
-2.750000e+00 1.084070e-14
-2.740000e+00 1.038041e-14
-2.730000e+00 9.527584e-15
-2.720000e+00 8.268509e-15
-2.710000e+00 6.600265e-15
-2.700000e+00 4.531740e-15
-2.690000e+00 2.084424e-15
-2.680000e+00 -7.070365e-16
-2.670000e+00 -3.794730e-15
-2.660000e+00 -7.117638e-15
-2.650000e+00 -1.060219e-14
-2.640000e+00 -1.416321e-14
-2.630000e+00 -1.770535e-14
-2.620000e+00 -2.112473e-14
-2.610000e+00 -2.431116e-14
-2.600000e+00 -2.715057e-14
-2.590000e+00 -2.952781e-14
-2.580000e+00 -3.132971e-14
-2.570000e+00 -3.244826e-14
-2.560000e+00 -3.278407e-14
-2.550000e+00 -3.224971e-14
-2.540000e+00 -3.077317e-14
-2.530000e+00 -2.830094e-14
-2.520000e+00 -2.480116e-14
-2.510000e+00 -2.026626e-14
-2.500000e+00 -1.471523e-14
-2.490000e+00 -8.195356e-15
-2.480000e+00 -7.834181e-16
-2.470000e+00 7.413825e-15
-2.460000e+00 1.625991e-14
-2.450000e+00 2.558954e-14
-2.440000e+00 3.521060e-14
-2.430000e+00 4.490668e-14
-2.420000e+00 5.444051e-14
-2.410000e+00 6.355831e-14
-2.400000e+00 7.199473e-14
-2.390000e+00 7.947838e-14
-2.380000e+00 8.573842e-14
-2.370000e+00 9.051093e-14
-2.360000e+00 9.354603e-14
-2.350000e+00 9.461518e-14
-2.340000e+00 9.351841e-14
-2.330000e+00 9.009138e-14
-2.320000e+00 8.421208e-14
-2.310000e+00 7.580715e-14
-2.300000e+00 6.485728e-14
-2.290000e+00 5.140202e-14
-2.280000e+00 3.554310e-14
-2.270000e+00 1.744690e-14
-2.260000e+00 -2.654580e-15
-2.250000e+00 -2.446430e-14
-2.240000e+00 -4.762220e-14
-2.230000e+00 -7.170887e-14
-2.220000e+00 -9.625102e-14
-2.210000e+00 -1.207283e-13
-2.200000e+00 -1.445818e-13
-2.190000e+00 -1.672243e-13
-2.180000e+00 -1.880515e-13
-2.170000e+00 -2.064540e-13
-2.160000e+00 -2.218321e-13
-2.150000e+00 -2.336081e-13
-2.140000e+00 -2.412430e-13
-2.130000e+00 -2.442493e-13
-2.120000e+00 -2.422064e-13
-2.110000e+00 -2.347751e-13
-2.100000e+00 -2.217092e-13
-2.090000e+00 -2.028688e-13
-2.080000e+00 -1.782294e-13
-2.070000e+00 -1.478912e-13
-2.060000e+00 -1.120843e-13
-2.050000e+00 -7.117276e-14
-2.040000e+00 -2.565561e-14
-2.030000e+00 2.383543e-14
-2.020000e+00 7.654047e-14
-2.010000e+00 1.315800e-13
-2.000000e+00 1.879657e-13
-1.990000e+00 2.446149e-13
-1.980000e+00 3.003671e-13
-1.970000e+00 3.540043e-13
-1.960000e+00 4.042728e-13
-1.950000e+00 4.499069e-13
-1.940000e+00 4.896556e-13
-1.930000e+00 5.223092e-13
-1.920000e+00 5.467267e-13
-1.910000e+00 5.618641e-13
-1.900000e+00 5.668006e-13
-1.890000e+00 5.607670e-13
-1.880000e+00 5.431689e-13
-1.870000e+00 5.136084e-13
-1.860000e+00 4.719051e-13
-1.850000e+00 4.181122e-13
-1.840000e+00 3.525273e-13
-1.830000e+00 2.757012e-13
-1.820000e+00 1.884414e-13
-1.810000e+00 9.180970e-14
-1.800000e+00 -1.288504e-14
-1.790000e+00 -1.240990e-13
-1.780000e+00 -2.400713e-13
-1.770000e+00 -3.588471e-13
-1.760000e+00 -4.783055e-13
-1.750000e+00 -5.961925e-13
-1.740000e+00 -7.101578e-13
-1.730000e+00 -8.177942e-13
-1.720000e+00 -9.166835e-13
-1.710000e+00 -1.004442e-12
-1.700000e+00 -1.078765e-12
-1.690000e+00 -1.137479e-12
-1.680000e+00 -1.178588e-12
-1.670000e+00 -1.200319e-12
-1.660000e+00 -1.201167e-12
-1.650000e+00 -1.179938e-12
-1.640000e+00 -1.135786e-12
-1.630000e+00 -1.068243e-12
-1.620000e+00 -9.772466e-13
-1.610000e+00 -8.631658e-13
-1.600000e+00 -7.268059e-13
-1.590000e+00 -5.694198e-13
-1.580000e+00 -3.927055e-13
-1.570000e+00 -1.987935e-13
-1.560000e+00 9.769294e-15
-1.550000e+00 2.300481e-13
-1.540000e+00 4.587529e-13
-1.530000e+00 6.922840e-13
-1.520000e+00 9.267785e-13
-1.510000e+00 1.158168e-12
-1.500000e+00 1.382242e-12
-1.490000e+00 1.594711e-12
-1.480000e+00 1.791280e-12
-1.470000e+00 1.967721e-12
-1.460000e+00 2.119949e-12
-1.450000e+00 2.244094e-12
-1.440000e+00 2.336583e-12
-1.430000e+00 2.394201e-12
-1.420000e+00 2.414172e-12
-1.410000e+00 2.394215e-12
-1.400000e+00 2.332609e-12
-1.390000e+00 2.228238e-12
-1.380000e+00 2.080642e-12
-1.370000e+00 1.890046e-12
-1.360000e+00 1.657393e-12
-1.350000e+00 1.384352e-12
-1.340000e+00 1.073329e-12
-1.330000e+00 7.274548e-13
-1.320000e+00 3.505748e-13
-1.310000e+00 -5.278572e-14
-1.300000e+00 -4.774592e-13
-1.290000e+00 -9.176893e-13
-1.280000e+00 -1.367190e-12
-1.270000e+00 -1.819219e-12
-1.260000e+00 -2.266660e-12
-1.250000e+00 -2.702113e-12
-1.240000e+00 -3.117990e-12
-1.230000e+00 -3.506624e-12
-1.220000e+00 -3.860374e-12
-1.210000e+00 -4.171749e-12
-1.200000e+00 -4.433517e-12
-1.190000e+00 -4.638830e-12
-1.180000e+00 -4.781342e-12
-1.170000e+00 -4.855331e-12
-1.160000e+00 -4.855813e-12
-1.150000e+00 -4.778658e-12
-1.140000e+00 -4.620687e-12
-1.130000e+00 -4.379783e-12
-1.120000e+00 -4.054975e-12
-1.110000e+00 -3.646509e-12
-1.100000e+00 -3.155928e-12
-1.090000e+00 -2.586118e-12
-1.080000e+00 -1.941338e-12
-1.070000e+00 -1.227247e-12
-1.060000e+00 -4.509005e-13
-1.050000e+00 3.792658e-13
-1.040000e+00 1.253477e-12
-1.030000e+00 2.160690e-12
-1.020000e+00 3.088657e-12
-1.010000e+00 4.024065e-12
-1.000000e+00 4.952639e-12
-9.900002e-01 5.859310e-12
-9.800000e-01 6.728395e-12
-9.700003e-01 7.543787e-12
-9.600000e-01 8.289191e-12
-9.500003e-01 8.948336e-12
-9.400001e-01 9.505268e-12
-9.300003e-01 9.944596e-12
-9.200001e-01 1.025177e-11
-9.100003e-01 1.041338e-11
-9.000001e-01 1.041746e-11
-8.900003e-01 1.025377e-11
-8.800001e-01 9.914038e-12
-8.700004e-01 9.392323e-12
-8.600001e-01 8.685202e-12
-8.500004e-01 7.792011e-12
-8.400002e-01 6.715086e-12
-8.299999e-01 5.459911e-12
-8.200002e-01 4.035240e-12
-8.099999e-01 2.453208e-12
-8.000002e-01 7.293489e-13
-7.900000e-01 -1.117421e-12
-7.800002e-01 -3.064879e-12
-7.700000e-01 -5.087646e-12
-7.600002e-01 -7.157375e-12
-7.500000e-01 -9.243054e-12
-7.400002e-01 -1.131132e-11
-7.300000e-01 -1.332687e-11
-7.200003e-01 -1.525293e-11
-7.100000e-01 -1.705183e-11
-7.000003e-01 -1.868549e-11
-6.900001e-01 -2.011612e-11
-6.800003e-01 -2.130686e-11
-6.700001e-01 -2.222252e-11
-6.600003e-01 -2.283019e-11
-6.500001e-01 -2.310013e-11
-6.400003e-01 -2.300633e-11
-6.300001e-01 -2.252727e-11
-6.200004e-01 -2.164662e-11
-6.100001e-01 -2.035378e-11
-6.000004e-01 -1.864450e-11
-5.900002e-01 -1.652132e-11
-5.800004e-01 -1.399395e-11
-5.700002e-01 -1.107954e-11
-5.599999e-01 -7.802908e-12
-5.500002e-01 -4.196482e-12
-5.400000e-01 -3.002459e-13
-5.300002e-01 3.838476e-12
-5.200000e-01 8.165479e-12
-5.100002e-01 1.262014e-11
-5.000000e-01 1.713616e-11
-4.900002e-01 2.164232e-11
-4.800000e-01 2.606351e-11
-4.700003e-01 3.032177e-11
-4.600000e-01 3.433750e-11
-4.500003e-01 3.803069e-11
-4.400001e-01 4.132241e-11
-4.300003e-01 4.413612e-11
-4.200001e-01 4.639914e-11
-4.100003e-01 4.804412e-11
-4.000001e-01 4.901053e-11
-3.900003e-01 4.924591e-11
-3.800001e-01 4.870726e-11
-3.700004e-01 4.736231e-11
-3.600001e-01 4.519048e-11
-3.500004e-01 4.218383e-11
-3.400002e-01 3.834779e-11
-3.300004e-01 3.370167e-11
-3.200002e-01 2.827901e-11
-3.099999e-01 2.212763e-11
-3.000002e-01 1.530932e-11
-2.900000e-01 7.899591e-12
-2.800002e-01 -1.317709e-14
-2.700000e-01 -8.328628e-12
-2.600002e-01 -1.693565e-11
-2.500000e-01 -2.571386e-11
-2.400002e-01 -3.453516e-11
-2.300000e-01 -4.326569e-11
-2.200003e-01 -5.176785e-11
-2.100000e-01 -5.990235e-11
-2.000003e-01 -6.753052e-11
-1.900001e-01 -7.451675e-11
-1.800003e-01 -8.073048e-11
-1.700001e-01 -8.604890e-11
-1.600003e-01 -9.035891e-11
-1.500001e-01 -9.355926e-11
-1.400003e-01 -9.556272e-11
-1.300001e-01 -9.629749e-11
-1.200004e-01 -9.570916e-11
-1.100001e-01 -9.376147e-11
-1.000004e-01 -9.043779e-11
-9.000015e-02 -8.574141e-11
-8.000040e-02 -7.969581e-11
-7.000017e-02 -7.234477e-11
-5.999994e-02 -6.375194e-11
-5.000019e-02 -5.399986e-11
-3.999996e-02 -4.318906e-11
-3.000021e-02 -3.143642e-11
-1.999998e-02 -1.887350e-11
-1.000023e-02 -5.644475e-12
0.000000e+00 8.096144e-12
1.000023e-02 2.218598e-11
1.999950e-02 3.645741e-11
2.999973e-02 5.074019e-11
3.999996e-02 6.486429e-11
5.000019e-02 7.866251e-11
5.999947e-02 9.197310e-11
6.999969e-02 1.046422e-10
7.999992e-02 1.165262e-10
9.000015e-02 1.274937e-10
9.999943e-02 1.374271e-10
1.099997e-01 1.462242e-10
1.199999e-01 1.537988e-10
1.300001e-01 1.600817e-10
1.399994e-01 1.650211e-10
1.499996e-01 1.685811e-10
1.599998e-01 1.707427e-10
1.700001e-01 1.715012e-10
1.799994e-01 1.708660e-10
1.899996e-01 1.688578e-10
1.999998e-01 1.655072e-10
2.100000e-01 1.608517e-10
2.200003e-01 1.549337e-10
2.299995e-01 1.477980e-10
2.399998e-01 1.394883e-10
2.500000e-01 1.300453e-10
2.600002e-01 1.195045e-10
2.699995e-01 1.078927e-10
2.799997e-01 9.522760e-11
2.900000e-01 8.151532e-11
3.000002e-01 6.674941e-11
3.099995e-01 5.091074e-11
3.199997e-01 3.396709e-11
3.299999e-01 1.587392e-11
3.400002e-01 -3.423947e-12
3.499994e-01 -2.399072e-11
3.599997e-01 -4.589663e-11
3.699999e-01 -6.921452e-11
3.800001e-01 -9.401620e-11
3.899994e-01 -1.203670e-10
3.999996e-01 -1.483215e-10
4.099998e-01 -1.779170e-10
4.200001e-01 -2.091683e-10
4.299994e-01 -2.420610e-10
4.399996e-01 -2.765454e-10
4.499998e-01 -3.125303e-10
4.600000e-01 -3.498761e-10
4.700003e-01 -3.883904e-10
4.799995e-01 -4.278216e-10
4.899998e-01 -4.678538e-10
5.000000e-01 -5.081054e-10
5.100002e-01 -5.481232e-10
5.199995e-01 -5.873815e-10
5.299997e-01 -6.252838e-10
5.400000e-01 -6.611598e-10
5.500002e-01 -6.942708e-10
5.599995e-01 -7.238104e-10
5.699997e-01 -7.489142e-10
5.799999e-01 -7.686617e-10
5.900002e-01 -7.820880e-10
5.999994e-01 -7.881925e-10
6.099997e-01 -7.859524e-10
6.199999e-01 -7.743325e-10
6.300001e-01 -7.523039e-10
6.399994e-01 -7.188556e-10
6.499996e-01 -6.730145e-10
6.599998e-01 -6.138612e-10
6.700001e-01 -5.405501e-10
6.799994e-01 -4.523266e-10
6.899996e-01 -3.485484e-10
6.999998e-01 -2.287040e-10
7.100000e-01 -9.243181e-11
7.200003e-01 6.045970e-11
7.299995e-01 2.299758e-10
7.399998e-01 4.159146e-10
7.500000e-01 6.178538e-10
7.600002e-01 8.351332e-10
7.699995e-01 1.066844e-09
7.799997e-01 1.311810e-09
7.900000e-01 1.568587e-09
8.000002e-01 1.835445e-09
8.099995e-01 2.110368e-09
8.199997e-01 2.391042e-09
8.299999e-01 2.674864e-09
8.400002e-01 2.958930e-09
8.499994e-01 3.240044e-09
8.599997e-01 3.514718e-09
8.699999e-01 3.779183e-09
8.800001e-01 4.029388e-09
8.899994e-01 4.261020e-09
8.999996e-01 4.469510e-09
9.099998e-01 4.650042e-09
9.200001e-01 4.797575e-09
9.299994e-01 4.906849e-09
9.399996e-01 4.972423e-09
9.499998e-01 4.988659e-09
9.600000e-01 4.949773e-09
9.700003e-01 4.849838e-09
9.799995e-01 4.682803e-09
9.899998e-01 4.442527e-09
1.000000e+00 4.122773e-09
1.010000e+00 3.717270e-09
1.020000e+00 3.219698e-09
1.030000e+00 2.623727e-09
1.040000e+00 1.923023e-09
1.050000e+00 1.111295e-09
1.059999e+00 1.823063e-10
1.070000e+00 -8.701233e-10
1.080000e+00 -2.052063e-09
1.090000e+00 -3.369481e-09
1.099999e+00 -4.828193e-09
1.110000e+00 -6.433868e-09
1.120000e+00 -8.191980e-09
1.130000e+00 -1.010780e-08
1.139999e+00 -1.218643e-08
1.150000e+00 -1.443262e-08
1.160000e+00 -1.685096e-08
1.170000e+00 -1.944568e-08
1.179999e+00 -2.222078e-08
1.190000e+00 -2.517986e-08
1.200000e+00 -2.832621e-08
1.210000e+00 -3.166279e-08
1.220000e+00 -3.519215e-08
1.230000e+00 -3.891644e-08
1.240000e+00 -4.283745e-08
1.250000e+00 -4.695655e-08
1.260000e+00 -5.127465e-08
1.270000e+00 -5.579230e-08
1.280000e+00 -6.050957e-08
1.290000e+00 -6.542616e-08
1.300000e+00 -7.054126e-08
1.309999e+00 -7.585381e-08
1.320000e+00 -8.136213e-08
1.330000e+00 -8.706435e-08
1.340000e+00 -9.295810e-08
1.349999e+00 -9.904083e-08
1.360000e+00 -1.053095e-07
1.370000e+00 -1.117609e-07
1.380000e+00 -1.183917e-07
1.389999e+00 -1.251979e-07
1.400000e+00 -1.321761e-07
1.410000e+00 -1.393221e-07
1.420000e+00 -1.466319e-07
1.429999e+00 -1.541019e-07
1.440000e+00 -1.617278e-07
1.450000e+00 -1.695061e-07
1.460000e+00 -1.774333e-07
1.469999e+00 -1.855059e-07
1.480000e+00 -1.937211e-07
1.490000e+00 -2.020763e-07
1.500000e+00 -2.105693e-07
1.510000e+00 -2.191984e-07
1.520000e+00 -2.279628e-07
1.530000e+00 -2.368618e-07
1.540000e+00 -2.458959e-07
1.550000e+00 -2.550662e-07
1.559999e+00 -2.643739e-07
1.570000e+00 -2.738226e-07
1.580000e+00 -2.834148e-07
1.590000e+00 -2.931554e-07
1.599999e+00 -3.030497e-07
1.610000e+00 -3.131037e-07
1.620000e+00 -3.233247e-07
1.630000e+00 -3.337210e-07
1.639999e+00 -3.443014e-07
1.650000e+00 -3.550762e-07
1.660000e+00 -3.660561e-07
1.670000e+00 -3.772534e-07
1.679999e+00 -3.886804e-07
1.690000e+00 -4.003512e-07
1.700000e+00 -4.122799e-07
1.710000e+00 -4.244821e-07
1.719999e+00 -4.369736e-07
1.730000e+00 -4.497711e-07
1.740000e+00 -4.628922e-07
1.750000e+00 -4.763548e-07
1.760000e+00 -4.901772e-07
1.770000e+00 -5.043786e-07
1.780000e+00 -5.189785e-07
1.790000e+00 -5.339970e-07
1.800000e+00 -5.494538e-07
1.809999e+00 -5.653698e-07
1.820000e+00 -5.817654e-07
1.830000e+00 -5.986617e-07
1.840000e+00 -6.160798e-07
1.849999e+00 -6.340407e-07
1.860000e+00 -6.525659e-07
1.870000e+00 -6.716767e-07
1.880000e+00 -6.913941e-07
1.889999e+00 -7.117392e-07
1.900000e+00 -7.327336e-07
1.910000e+00 -7.543983e-07
1.920000e+00 -7.767545e-07
1.929999e+00 -7.998229e-07
1.940000e+00 -8.236249e-07
1.950000e+00 -8.481812e-07
1.960000e+00 -8.735121e-07
1.969999e+00 -8.996387e-07
1.980000e+00 -9.265817e-07
1.990000e+00 -9.543612e-07
2.000000e+00 -9.829980e-07
2.010000e+00 -1.012513e-06
2.020000e+00 -1.042927e-06
2.030000e+00 -1.074259e-06
2.040000e+00 -1.106532e-06
2.050000e+00 -1.139765e-06
2.059999e+00 -1.173980e-06
2.070000e+00 -1.209197e-06
2.080000e+00 -1.245439e-06
2.090000e+00 -1.282726e-06
2.099999e+00 -1.321081e-06
2.110000e+00 -1.360526e-06
2.120000e+00 -1.401083e-06
2.130000e+00 -1.442775e-06
2.139999e+00 -1.485628e-06
2.150000e+00 -1.529663e-06
2.160000e+00 -1.574905e-06
2.170000e+00 -1.621381e-06
2.179999e+00 -1.669115e-06
2.190000e+00 -1.718133e-06
2.200000e+00 -1.768465e-06
2.210000e+00 -1.820136e-06
2.219999e+00 -1.873176e-06
2.230000e+00 -1.927615e-06
2.240000e+00 -1.983481e-06
2.250000e+00 -2.040809e-06
2.260000e+00 -2.099628e-06
2.270000e+00 -2.159971e-06
2.280000e+00 -2.221880e-06
2.290000e+00 -2.285382e-06
2.300000e+00 -2.350515e-06
2.309999e+00 -2.417319e-06
2.320000e+00 -2.485834e-06
2.330000e+00 -2.556096e-06
2.340000e+00 -2.628152e-06
2.349999e+00 -2.702041e-06
2.360000e+00 -2.777809e-06
2.370000e+00 -2.855502e-06
2.380000e+00 -2.935167e-06
2.389999e+00 -3.016852e-06
2.400000e+00 -3.100609e-06
2.410000e+00 -3.186488e-06
2.420000e+00 -3.274544e-06
2.429999e+00 -3.364832e-06
2.440000e+00 -3.457408e-06
2.450000e+00 -3.552331e-06
2.460000e+00 -3.649662e-06
2.469999e+00 -3.749461e-06
2.480000e+00 -3.851794e-06
2.490000e+00 -3.956724e-06
2.500000e+00 -4.064319e-06
2.510000e+00 -4.174649e-06
2.520000e+00 -4.287785e-06
2.530000e+00 -4.403796e-06
2.540000e+00 -4.522760e-06
2.550000e+00 -4.644753e-06
2.559999e+00 -4.769845e-06
2.570000e+00 -4.898122e-06
2.580000e+00 -5.029667e-06
2.590000e+00 -5.164556e-06
2.599999e+00 -5.302876e-06
2.610000e+00 -5.444710e-06
2.620000e+00 -5.590143e-06
2.630000e+00 -5.739269e-06
2.639999e+00 -5.892172e-06
2.650000e+00 -6.048944e-06
2.660000e+00 -6.209676e-06
2.670000e+00 -6.374460e-06
2.679999e+00 -6.543396e-06
2.690000e+00 -6.716570e-06
2.700000e+00 -6.894079e-06
2.710000e+00 -7.076027e-06
2.719999e+00 -7.262502e-06
2.730000e+00 -7.453613e-06
2.740000e+00 -7.649450e-06
2.750000e+00 -7.850115e-06
2.760000e+00 -8.055722e-06
2.770000e+00 -8.266357e-06
2.780000e+00 -8.482127e-06
2.790000e+00 -8.703135e-06
2.800000e+00 -8.929489e-06
2.809999e+00 -9.161300e-06
2.820000e+00 -9.398667e-06
2.830000e+00 -9.641692e-06
2.840000e+00 -9.890508e-06
2.849999e+00 -1.014521e-05
2.860000e+00 -1.040591e-05
2.870000e+00 -1.067272e-05
2.880000e+00 -1.094577e-05
2.889999e+00 -1.122517e-05
2.900000e+00 -1.151103e-05
2.910000e+00 -1.180350e-05
2.920000e+00 -1.210268e-05
2.929999e+00 -1.240870e-05
2.940000e+00 -1.272170e-05
2.950000e+00 -1.304181e-05
2.960000e+00 -1.336918e-05