-8.000000e+00 0.000000e+00
-7.950000e+00 0.000000e+00
-7.900000e+00 0.000000e+00
-7.850000e+00 0.000000e+00
-7.800000e+00 0.000000e+00
-7.750000e+00 0.000000e+00
-7.700000e+00 0.000000e+00
-7.650000e+00 0.000000e+00
-7.600000e+00 0.000000e+00
-7.550000e+00 0.000000e+00
-7.500000e+00 0.000000e+00
-7.450000e+00 0.000000e+00
-7.400000e+00 0.000000e+00
-7.350000e+00 0.000000e+00
-7.300000e+00 0.000000e+00
-7.250000e+00 0.000000e+00
-7.200000e+00 0.000000e+00
-7.150000e+00 0.000000e+00
-7.100000e+00 0.000000e+00
-7.050000e+00 0.000000e+00
-7.000000e+00 0.000000e+00
-6.950000e+00 0.000000e+00
-6.900000e+00 0.000000e+00
-6.850000e+00 0.000000e+00
-6.800000e+00 0.000000e+00
-6.750000e+00 0.000000e+00
-6.700000e+00 0.000000e+00
-6.650000e+00 0.000000e+00
-6.600000e+00 0.000000e+00
-6.550000e+00 0.000000e+00
-6.500000e+00 0.000000e+00
-6.450000e+00 0.000000e+00
-6.400000e+00 0.000000e+00
-6.350000e+00 0.000000e+00
-6.300000e+00 0.000000e+00
-6.250000e+00 0.000000e+00
-6.200000e+00 0.000000e+00
-6.150000e+00 0.000000e+00
-6.100000e+00 0.000000e+00
-6.050000e+00 0.000000e+00
-6.000000e+00 0.000000e+00
-5.950000e+00 0.000000e+00
-5.900000e+00 0.000000e+00
-5.850000e+00 0.000000e+00
-5.800000e+00 0.000000e+00
-5.750000e+00 0.000000e+00
-5.700000e+00 0.000000e+00
-5.650000e+00 0.000000e+00
-5.600000e+00 0.000000e+00
-5.550000e+00 0.000000e+00
-5.500000e+00 0.000000e+00
-5.450000e+00 0.000000e+00
-5.400000e+00 0.000000e+00
-5.350000e+00 0.000000e+00
-5.300000e+00 0.000000e+00
-5.250000e+00 0.000000e+00
-5.200000e+00 0.000000e+00
-5.150000e+00 0.000000e+00
-5.100000e+00 0.000000e+00
-5.050000e+00 0.000000e+00
-5.000000e+00 0.000000e+00
-4.950000e+00 0.000000e+00
-4.900000e+00 0.000000e+00
-4.850000e+00 0.000000e+00
-4.800000e+00 0.000000e+00
-4.750000e+00 0.000000e+00
-4.700000e+00 0.000000e+00
-4.650000e+00 0.000000e+00
-4.600000e+00 0.000000e+00
-4.550000e+00 0.000000e+00
-4.500000e+00 0.000000e+00
-4.450000e+00 0.000000e+00
-4.400000e+00 0.000000e+00
-4.350000e+00 0.000000e+00
-4.300000e+00 0.000000e+00
-4.250000e+00 0.000000e+00
-4.200000e+00 0.000000e+00
-4.150000e+00 0.000000e+00
-4.100000e+00 0.000000e+00
-4.050000e+00 0.000000e+00
-4.000000e+00 0.000000e+00
-3.950000e+00 0.000000e+00
-3.900000e+00 0.000000e+00
-3.850000e+00 0.000000e+00
-3.800000e+00 0.000000e+00
-3.750000e+00 0.000000e+00
-3.700000e+00 0.000000e+00
-3.650000e+00 0.000000e+00
-3.600000e+00 0.000000e+00
-3.550000e+00 0.000000e+00
-3.500000e+00 0.000000e+00
-3.450000e+00 0.000000e+00
-3.400000e+00 0.000000e+00
-3.350000e+00 0.000000e+00
-3.300000e+00 0.000000e+00
-3.250000e+00 0.000000e+00
-3.200000e+00 0.000000e+00
-3.150000e+00 0.000000e+00
-3.100000e+00 -1.401298e-45
-3.050000e+00 -1.401298e-45
-3.000000e+00 9.809089e-45
-2.950000e+00 2.662467e-44
-2.900000e+00 1.121039e-44
-2.850000e+00 -8.688050e-44
-2.800000e+00 -1.835701e-43
-2.750000e+00 -1.191104e-43
-2.700000e+00 3.040818e-43
-2.650000e+00 8.225622e-43
-2.600000e+00 6.600116e-43
-2.550000e+00 -1.015941e-42
-2.500000e+00 -3.584521e-42
-2.450000e+00 -3.665797e-42
-2.400000e+00 2.900688e-42
-2.350000e+00 1.489160e-41
-2.300000e+00 1.929308e-41
-2.250000e+00 -3.661593e-42
-2.200000e+00 -5.574085e-41
-2.150000e+00 -9.035853e-41
-2.100000e+00 -2.157299e-41
-2.050000e+00 1.854058e-40
-2.000000e+00 3.807832e-40
-1.950000e+00 2.197236e-40
-1.900000e+00 -5.337448e-40
-1.850000e+00 -1.463187e-39
-1.800000e+00 -1.291113e-39
-1.750000e+00 1.198957e-39
-1.700000e+00 5.110680e-39
-1.650000e+00 6.090769e-39
-1.600000e+00 -1.232334e-39
-1.550000e+00 -1.607034e-38
-1.500000e+00 -2.490778e-38
-1.450000e+00 -6.595480e-39
-1.400000e+00 4.446121e-38
-1.350000e+00 9.078859e-38
-1.300000e+00 5.691510e-38
-1.250000e+00 -1.020730e-37
-1.200000e+00 -2.975344e-37
-1.150000e+00 -2.840986e-37
-1.100000e+00 1.582095e-37
-1.050000e+00 8.736322e-37
-1.000000e+00 1.137516e-36
-9.499998e-01 7.368713e-38
-9.000001e-01 -2.256738e-36
-8.499999e-01 -3.934416e-36
-7.999997e-01 -1.916317e-36
-7.500000e-01 4.879352e-36
-6.999998e-01 1.203545e-35
-6.500001e-01 1.011180e-35
-5.999999e-01 -7.475490e-36
-5.499997e-01 -3.262434e-35
-5.000000e-01 -3.903019e-35
-4.499998e-01 1.644457e-37
-4.000001e-01 7.700778e-35
-3.499999e-01 1.261971e-34
-2.999997e-01 5.735240e-35
-2.500000e-01 -1.498044e-34
-1.999998e-01 -3.548219e-34
-1.500001e-01 -2.927774e-34
-9.999990e-02 1.964396e-34
-4.999971e-02 8.711784e-34
0.000000e+00 1.044637e-33
5.000019e-02 6.787245e-35
1.000004e-01 -1.825122e-33
1.500006e-01 -3.068679e-33
1.999998e-01 -1.600305e-33
2.500000e-01 3.010407e-33
3.000002e-01 7.722117e-33
3.500004e-01 6.953716e-33
4.000006e-01 -2.678335e-33
4.499998e-01 -1.661167e-32
5.000000e-01 -2.171848e-32
5.500002e-01 -5.398291e-33
6.000004e-01 2.923792e-32
6.500006e-01 5.557265e-32
6.999998e-01 3.750516e-32
7.500000e-01 -3.566638e-32
8.000002e-01 -1.194311e-31
8.500004e-01 -1.270943e-31
9.000006e-01 5.316576e-34
9.499998e-01 2.107234e-31
1.000000e+00 3.256964e-31
1.050000e+00 1.607865e-31
1.100000e+00 -2.764336e-31
1.150001e+00 -6.784488e-31
1.200000e+00 -5.958862e-31
1.250000e+00 1.568602e-31
1.300000e+00 1.152484e-30
1.350000e+00 1.474011e-30
1.400001e+00 4.380886e-31
1.450000e+00 -1.547246e-30
1.500000e+00 -2.860499e-30
1.550000e+00 -1.806987e-30
1.600000e+00 1.572870e-30
1.650001e+00 4.687330e-30
1.700000e+00 4.007437e-30
1.750000e+00 -1.419428e-30
1.800000e+00 -7.538182e-30
1.850000e+00 -7.333852e-30
1.900001e+00 2.481099e-30
1.950000e+00 1.525199e-29
2.000000e+00 1.622252e-29
2.050000e+00 -4.744523e-30
2.100000e+00 -3.756327e-29
2.150001e+00 -4.971686e-29
2.200000e+00 -8.752483e-30
2.250000e+00 7.974837e-29
2.300000e+00 1.508232e-28
2.350000e+00 1.095839e-28
2.400001e+00 -8.713561e-29
2.450000e+00 -3.489533e-28
2.500000e+00 -4.532890e-28
2.550000e+00 -1.796318e-28
2.600000e+00 4.736807e-28
2.650001e+00 1.146736e-27
2.700000e+00 1.223696e-27
2.750000e+00 2.323284e-28
2.800000e+00 -1.649038e-27
2.850000e+00 -3.351150e-27
2.900001e+00 -3.286011e-27
2.950000e+00 -3.623561e-28
3.000000e+00 4.814288e-27
3.050000e+00 9.399513e-27
3.100000e+00 9.225190e-27
3.150001e+00 1.320130e-27
3.200000e+00 -1.294466e-26
3.250000e+00 -2.615078e-26
3.300000e+00 -2.684436e-26
3.350000e+00 -6.124088e-27
3.400001e+00 3.342708e-26
3.450000e+00 7.216294e-26
3.500000e+00 7.803977e-26
3.550000e+00 2.463925e-26
3.600000e+00 -8.344264e-26
3.650001e+00 -1.941276e-25
3.700000e+00 -2.199138e-25
3.750000e+00 -8.678181e-26
3.800000e+00 1.973828e-25
3.850000e+00 4.992519e-25
3.900001e+00 5.919763e-25
3.950000e+00 2.807893e-25
4.000000e+00 -4.254008e-25
4.050000e+00 -1.207603e-24
4.100000e+00 -1.514430e-24
4.150001e+00 -8.596613e-25
4.200000e+00 7.776349e-25
4.250000e+00 2.703708e-24
4.300000e+00 3.670163e-24
4.350000e+00 2.514188e-24
4.400001e+00 -9.722463e-25
4.450000e+00 -5.467465e-24
4.500000e+00 -8.365587e-24
4.550000e+00 -6.999878e-24
4.600000e+00 -3.900937e-25
4.650001e+00 9.449713e-24
4.700000e+00 1.763786e-23
4.750000e+00 1.837662e-23
4.800000e+00 8.110465e-24
4.850000e+00 -1.159842e-23
4.900001e+00 -3.315004e-23
4.950000e+00 -4.492287e-23
5.000000e+00 -3.595535e-23
5.050000e+00 -1.826025e-24
5.100000e+00 5.041014e-23
5.150001e+00 1.005061e-22
5.200000e+00 1.186381e-22
5.250000e+00 7.587854e-23
5.300000e+00 -3.881794e-23
5.350000e+00 -1.996991e-22
5.400001e+00 -3.340993e-22
5.450000e+00 -3.361539e-22
5.500000e+00 -1.151724e-22
5.550000e+00 3.285419e-22
5.600000e+00 8.365708e-22
5.650001e+00 1.093649e-21
5.700000e+00 7.495066e-22
5.750000e+00 -3.441280e-22
5.800000e+00 -1.884160e-21
5.850000e+00 -3.041469e-21
5.900001e+00 -2.738915e-21
5.950000e+00 -2.998731e-22
6.000000e+00 3.796098e-21
6.050000e+00 7.566308e-21
6.100000e+00 8.103691e-21
6.150001e+00 3.191969e-21
6.200000e+00 -6.667075e-21
6.250000e+00 -1.711353e-20
6.300000e+00 -2.102579e-20
6.350000e+00 -1.224200e-20
6.400001e+00 9.480510e-21
6.450000e+00 3.530426e-20
6.500000e+00 4.917967e-20
6.550000e+00 3.583093e-20
6.600000e+00 -8.047559e-21
6.650001e+00 -6.601172e-20
6.700000e+00 -1.046520e-19
6.750000e+00 -8.957394e-20
6.800000e+00 -8.803852e-21
6.850000e+00 1.098952e-19
6.900001e+00 2.024138e-19
6.950000e+00 1.980162e-19
7.000000e+00 6.455198e-20
7.050000e+00 -1.564805e-19
7.100000e+00 -3.525297e-19
7.150001e+00 -3.909148e-19
7.200000e+00 -1.989730e-19
7.250000e+00 1.713880e-19
7.300000e+00 5.419332e-19
7.350000e+00 6.871276e-19
7.400001e+00 4.629951e-19
7.450000e+00 -8.511130e-20
7.500000e+00 -7.085725e-19
7.550000e+00 -1.062784e-18
7.600000e+00 -8.919989e-19
7.650001e+00 -1.935255e-19
7.700000e+00 7.379899e-19
7.750000e+00 1.427553e-18
7.800000e+00 1.453508e-18
7.850000e+00 6.875615e-19
7.900001e+00 -5.812356e-19
7.950000e+00 -1.718741e-18
8.000000e+00 -2.019924e-18
8.050001e+00 -1.105328e-18
8.100000e+00 7.264381e-19
8.150000e+00 2.421913e-18
8.200001e+00 2.582150e-18
8.250000e+00 3.712190e-19
8.300001e+00 -3.455947e-18
8.350000e+00 -6.190247e-18
8.400000e+00 -4.280513e-18
8.450001e+00 3.985428e-18
8.500000e+00 1.552266e-17
8.550001e+00 2.174502e-17
8.600000e+00 1.242652e-17
8.650000e+00 -1.611460e-17
8.700001e+00 -5.290729e-17
8.750000e+00 -7.168223e-17
8.800001e+00 -4.334906e-17
8.850000e+00 4.071618e-17
8.900000e+00 1.479087e-16
8.950001e+00 2.056384e-16
9.000000e+00 1.369581e-16
9.050001e+00 -7.900751e-17
9.100000e+00 -3.578386e-16
9.150000e+00 -5.185964e-16
9.200001e+00 -3.749538e-16
9.250000e+00 1.214739e-16
9.300001e+00 7.735772e-16
9.350000e+00 1.170141e-15
9.400000e+00 8.985546e-16
9.450001e+00 -1.424093e-16
9.500000e+00 -1.527149e-15
9.550001e+00 -2.394545e-15
9.600000e+00 -1.907903e-15
9.650000e+00 1.137910e-16
9.700001e+00 2.803844e-15
9.750000e+00 4.486636e-15
9.800001e+00 3.609252e-15
9.850000e+00 -7.665086e-17
9.900000e+00 -4.879670e-15
9.950001e+00 -7.750252e-15
1.000000e+01 -6.063144e-15
1.005000e+01 3.300216e-16
1.010000e+01 8.226531e-15
1.015000e+01 1.241008e-14
1.020000e+01 8.890939e-15
1.025000e+01 -1.801296e-15
1.030000e+01 -1.373804e-14
1.035000e+01 -1.850781e-14
1.040000e+01 -1.083120e-14
1.045000e+01 6.616550e-15
1.050000e+01 2.308962e-14
1.055000e+01 2.579963e-14
1.060000e+01 9.194042e-15
1.065000e+01 -1.877233e-14
1.070000e+01 -3.910888e-14
1.075000e+01 -3.358323e-14
1.080000e+01 7.110496e-16
1.085000e+01 4.464701e-14
1.090000e+01 6.578349e-14
1.095000e+01 4.015717e-14
1.100000e+01 -2.618949e-14
1.105000e+01 -9.298995e-14
1.110000e+01 -1.072753e-13
1.115000e+01 -4.129843e-14
1.120000e+01 7.809274e-14
1.125000e+01 1.741571e-13
1.130000e+01 1.652996e-13
1.135000e+01 2.701337e-14
1.140000e+01 -1.725932e-13
1.145000e+01 -2.987596e-13
1.150000e+01 -2.347682e-13
1.155000e+01 2.361995e-14
1.160000e+01 3.340077e-13
1.165000e+01 4.761435e-13
1.170000e+01 2.986168e-13
1.175000e+01 -1.480554e-13
1.180000e+01 -5.971794e-13
1.185000e+01 -7.121819e-13
1.190000e+01 -3.232472e-13
1.195000e+01 4.027466e-13
1.200000e+01 1.004720e-12
1.205000e+01 1.002657e-12
1.210000e+01 2.540270e-13
1.215000e+01 -8.587590e-13
1.220000e+01 -1.591892e-12
1.225000e+01 -1.313959e-12
1.230000e+01 -4.618132e-15
1.235000e+01 1.592326e-12
1.240000e+01 2.355579e-12
1.245000e+01 1.542725e-12
1.250000e+01 -5.716890e-13
1.255000e+01 -2.683700e-12
1.260000e+01 -3.219490e-12
1.265000e+01 -1.461183e-12
1.270000e+01 1.732634e-12
1.275000e+01 4.243686e-12
1.280000e+01 4.030636e-12
1.285000e+01 6.915100e-13
1.290000e+01 -3.883663e-12
1.295000e+01 -6.458757e-12
1.300000e+01 -4.620207e-12
1.305000e+01 1.213456e-12
1.310000e+01 7.495486e-12
1.315000e+01 9.555094e-12
1.320000e+01 4.875318e-12
1.325000e+01 -4.555903e-12
1.330000e+01 -1.277940e-11
1.335000e+01 -1.347543e-11
1.340000e+01 -4.576152e-12
1.345000e+01 9.359976e-12
1.350000e+01 1.921937e-11
1.355000e+01 1.717143e-11
1.360000e+01 2.657043e-12
1.365000e+01 -1.588813e-11
1.370000e+01 -2.564682e-11
1.375000e+01 -1.811068e-11
1.380000e+01 3.861808e-12
1.385000e+01 2.616348e-11
1.390000e+01 3.194907e-11
1.395000e+01 1.373424e-11
1.400000e+01 -1.925901e-11
1.405000e+01 -4.482834e-11
1.410000e+01 -4.183509e-11
1.415000e+01 -6.050867e-12
1.420000e+01 4.353215e-11
1.425000e+01 7.421288e-11
1.430000e+01 6.066846e-11
1.435000e+01 4.208228e-12
1.440000e+01 -6.403244e-11
1.445000e+01 -1.007166e-10
1.450000e+01 -7.907751e-11
1.455000e+01 -9.611833e-12
1.460000e+01 6.343296e-11
1.465000e+01 9.050097e-11
1.470000e+01 5.260036e-11
1.475000e+01 -2.092888e-11
1.480000e+01 -6.865669e-11
1.485000e+01 -4.036386e-11
1.490000e+01 6.076277e-11
1.495000e+01 1.688859e-10
1.500000e+01 1.918526e-10
1.505000e+01 7.429467e-11
1.510000e+01 -1.537969e-10
1.515000e+01 -3.801352e-10
1.520000e+01 -4.703984e-10
1.525000e+01 -3.514217e-10
1.530000e+01 -6.264639e-11
1.535000e+01 2.626544e-10
1.540000e+01 4.792216e-10
1.545000e+01 5.220149e-10
1.550000e+01 4.435975e-10
1.555000e+01 3.651246e-10
1.560000e+01 3.699502e-10
1.565000e+01 4.153063e-10
1.570000e+01 3.340365e-10
1.575000e+01 -5.870000e-11
1.580000e+01 -8.144432e-10
1.585000e+01 -1.758312e-09
1.590000e+01 -2.529055e-09
1.595000e+01 -2.743954e-09
1.600000e+01 -2.193656e-09
1.605000e+01 -9.440647e-10
1.610000e+01 7.212766e-10
1.615000e+01 2.477354e-09
1.620000e+01 4.125948e-09
1.625000e+01 5.630457e-09
1.630000e+01 6.986102e-09
1.635000e+01 8.021038e-09
1.640000e+01 8.291425e-09
1.645000e+01 7.184378e-09
1.650000e+01 4.199840e-09
1.655000e+01 -7.592906e-10
1.660000e+01 -7.294478e-09
1.665000e+01 -1.471131e-08
1.670000e+01 -2.241384e-08
1.675000e+01 -3.025075e-08
1.680000e+01 -3.858358e-08
1.685000e+01 -4.802516e-08
1.690000e+01 -5.902647e-08
1.695000e+01 -7.161159e-08
1.700000e+01 -8.547542e-08
1.705000e+01 -1.004081e-07
1.710000e+01 -1.167619e-07
1.715000e+01 -1.356102e-07
1.720000e+01 -1.584335e-07
1.725000e+01 -1.864912e-07
1.730000e+01 -2.202857e-07
1.735000e+01 -2.595086e-07
1.740000e+01 -3.035614e-07
1.745000e+01 -3.523558e-07
1.750000e+01 -4.068837e-07
1.755000e+01 -4.691696e-07
1.760000e+01 -5.416250e-07
1.765000e+01 -6.262374e-07
1.770000e+01 -7.241654e-07
1.775000e+01 -8.360506e-07
1.780000e+01 -9.628658e-07
1.785000e+01 -1.106710e-06
1.790000e+01 -1.270971e-06
1.795000e+01 -1.459667e-06
1.800000e+01 -1.676411e-06
1.805000e+01 -1.923690e-06
1.810000e+01 -2.203084e-06
1.815000e+01 -2.516376e-06
1.820000e+01 -2.866925e-06
1.825000e+01 -3.260414e-06
1.830000e+01 -3.704454e-06
1.835000e+01 -4.207231e-06
1.840000e+01 -4.776071e-06
1.845000e+01 -5.416844e-06
1.850000e+01 -6.134637e-06
1.855000e+01 -6.935326e-06
1.860000e+01 -7.827047e-06
1.865000e+01 -8.820663e-06
1.870000e+01 -9.929007e-06
1.875000e+01 -1.116539e-05
1.880000e+01 -1.254248e-05
1.885000e+01 -1.407218e-05
1.890000e+01 -1.576667e-05
1.895000e+01 -1.763971e-05
1.900000e+01 -1.970751e-05
1.905000e+01 -2.198851e-05
1.910000e+01 -2.450235e-05
1.915000e+01 -2.726904e-05
1.920000e+01 -3.030860e-05
1.925000e+01 -3.364183e-05
1.930000e+01 -3.729127e-05
1.935000e+01 -4.128157e-05
1.940000e+01 -4.563915e-05
1.945000e+01 -5.039095e-05
1.950000e+01 -5.556350e-05
1.955000e+01 -6.118308e-05
1.960000e+01 -6.727669e-05
1.965000e+01 -7.387351e-05
1.970000e+01 -8.100556e-05
1.975000e+01 -8.870695e-05
1.980000e+01 -9.701199e-05
1.985000e+01 -1.059531e-04
1.990000e+01 -1.155605e-04
1.995000e+01 -1.258622e-04
2.000000e+01 -1.368860e-04
2.005000e+01 -1.486613e-04
2.010000e+01 -1.612183e-04
2.015000e+01 -1.745874e-04
2.020000e+01 -1.887966e-04
2.025000e+01 -2.038703e-04
2.030000e+01 -2.198293e-04
2.035000e+01 -2.366918e-04
2.040000e+01 -2.544743e-04
2.045000e+01 -2.731907e-04
2.050000e+01 -2.928516e-04
2.055000e+01 -3.134606e-04
2.060000e+01 -3.350139e-04
2.065000e+01 -3.574997e-04
2.070000e+01 -3.809010e-04
2.075000e+01 -4.051976e-04
2.080000e+01 -4.303665e-04
2.085000e+01 -4.563810e-04
2.090000e+01 -4.832060e-04
2.095000e+01 -5.107938e-04
2.100000e+01 -5.390840e-04
2.105000e+01 -5.680007e-04
2.110000e+01 -5.974604e-04
2.115000e+01 -6.273714e-04
2.120000e+01 -6.576380e-04
2.125000e+01 -6.881603e-04
2.130000e+01 -7.188302e-04
2.135000e+01 -7.495268e-04
2.140000e+01 -7.801164e-04
2.145000e+01 -8.104504e-04
2.150000e+01 -8.403692e-04
2.155000e+01 -8.697031e-04
2.160000e+01 -8.982759e-04
2.165000e+01 -9.259076e-04
2.170000e+01 -9.524111e-04
2.175000e+01 -9.775951e-04
2.180000e+01 -1.001261e-03
2.185000e+01 -1.023207e-03
2.190000e+01 -1.043220e-03
2.195000e+01 -1.061089e-03
2.200000e+01 -1.076598e-03
2.205000e+01 -1.089530e-03
2.210000e+01 -1.099673e-03
2.215000e+01 -1.106817e-03
2.220000e+01 -1.110759e-03
2.225000e+01 -1.111302e-03
2.230000e+01 -1.108256e-03
2.235000e+01 -1.101443e-03
2.240000e+01 -1.090694e-03
2.245000e+01 -1.075852e-03
2.250000e+01 -1.056779e-03
2.255000e+01 -1.033350e-03
2.260000e+01 -1.005459e-03
2.265000e+01 -9.730229e-04
2.270000e+01 -9.359748e-04
2.275000e+01 -8.942718e-04
2.280000e+01 -8.478976e-04
2.285000e+01 -7.968601e-04
2.290000e+01 -7.411970e-04
2.295000e+01 -6.809740e-04
2.300000e+01 -6.162850e-04
2.305000e+01 -5.472507e-04
2.310000e+01 -4.740184e-04
2.315000e+01 -3.967631e-04
2.320000e+01 -3.156874e-04
2.325000e+01 -2.310236e-04
2.330000e+01 -1.430337e-04
2.335000e+01 -5.200929e-05
2.340000e+01 4.173112e-05
2.345000e+01 1.378446e-04
2.350000e+01 2.359677e-04
2.355000e+01 3.357178e-04
2.360000e+01 4.366948e-04
2.365000e+01 5.384815e-04
2.370000e+01 6.406466e-04
2.375000e+01 7.427429e-04
2.380000e+01 8.443132e-04
2.385000e+01 9.448933e-04
2.390000e+01 1.044016e-03
2.395000e+01 1.141215e-03
2.400000e+01 1.236031e-03
2.405000e+01 1.328010e-03
2.410000e+01 1.416707e-03
2.415000e+01 1.501690e-03
2.420000e+01 1.582539e-03
2.425000e+01 1.658848e-03
2.430000e+01 1.730237e-03
2.435000e+01 1.796343e-03
2.440000e+01 1.856837e-03
2.445000e+01 1.911420e-03
2.450000e+01 1.959823e-03
2.455000e+01 2.001812e-03
2.460000e+01 2.037188e-03
2.465000e+01 2.065785e-03
2.470000e+01 2.087473e-03
2.475000e+01 2.102163e-03
2.480000e+01 2.109801e-03
2.485000e+01 2.110374e-03
2.490000e+01 2.103908e-03
2.495000e+01 2.090468e-03
2.500000e+01 2.070159e-03
2.505000e+01 2.043123e-03
2.510000e+01 2.009540e-03
2.515000e+01 1.969621e-03
2.520000e+01 1.923613e-03
2.525000e+01 1.871795e-03
2.530000e+01 1.814472e-03
2.535000e+01 1.751976e-03
2.540000e+01 1.684661e-03
2.545000e+01 1.612900e-03
2.550000e+01 1.537086e-03
2.555000e+01 1.457626e-03
2.560000e+01 1.374943e-03
2.565000e+01 1.289472e-03
2.570000e+01 1.201655e-03
2.575000e+01 1.111936e-03
2.580000e+01 1.020759e-03
2.585000e+01 9.285645e-04
2.590000e+01 8.357826e-04
2.595000e+01 7.428376e-04
2.600000e+01 6.501425e-04
2.605000e+01 5.580995e-04
2.610000e+01 4.670971e-04
2.615000e+01 3.775063e-04
2.620000e+01 2.896783e-04
2.625000e+01 2.039425e-04
2.630000e+01 1.206038e-04
2.635000e+01 3.994379e-05
2.640000e+01 -3.778036e-05
2.645000e+01 -1.123363e-04
2.650000e+01 -1.835163e-04
2.655000e+01 -2.511397e-04
2.660000e+01 -3.150528e-04
2.665000e+01 -3.751295e-04
2.670000e+01 -4.312715e-04
2.675000e+01 -4.834069e-04
2.680000e+01 -5.314888e-04
2.685000e+01 -5.754939e-04
2.690000e+01 -6.154202e-04
2.695000e+01 -6.512870e-04
2.700000e+01 -6.831338e-04
2.705000e+01 -7.110208e-04
2.710000e+01 -7.350282e-04
2.715000e+01 -7.552553e-04
2.720000e+01 -7.718178e-04
2.725000e+01 -7.848457e-04
2.730000e+01 -7.944807e-04
2.735000e+01 -8.008732e-04
2.740000e+01 -8.041800e-04
2.745000e+01 -8.045659e-04
2.750000e+01 -8.022009e-04
2.755000e+01 -7.972622e-04
2.760000e+01 -7.899315e-04
2.765000e+01 -7.803933e-04
2.770000e+01 -7.688331e-04
2.775000e+01 -7.554343e-04
2.780000e+01 -7.403767e-04
2.785000e+01 -7.238371e-04
2.790000e+01 -7.059882e-04
2.795000e+01 -6.869975e-04
2.800000e+01 -6.670291e-04
2.805000e+01 -6.462405e-04
2.810000e+01 -6.247828e-04
2.815000e+01 -6.027989e-04
2.820000e+01 -5.804249e-04
2.825000e+01 -5.577882e-04
2.830000e+01 -5.350090e-04
2.835000e+01 -5.121995e-04
2.840000e+01 -4.894622e-04
2.845000e+01 -4.668907e-04
2.850000e+01 -4.445689e-04
2.855000e+01 -4.225731e-04
2.860000e+01 -4.009723e-04
2.865000e+01 -3.798289e-04
2.870000e+01 -3.591994e-04
2.875000e+01 -3.391329e-04
2.880000e+01 -3.196707e-04
2.885000e+01 -3.008451e-04
2.890000e+01 -2.826808e-04
2.895000e+01 -2.651957e-04
2.900000e+01 -2.484029e-04
2.905000e+01 -2.323122e-04
2.910000e+01 -2.169303e-04
2.915000e+01 -2.022610e-04
2.920000e+01 -1.883034e-04
2.925000e+01 -1.750518e-04
2.930000e+01 -1.624959e-04
2.935000e+01 -1.506218e-04
2.940000e+01 -1.394126e-04
2.945000e+01 -1.288510e-04
