-8.000000e+00 0.000000e+00
-7.950000e+00 0.000000e+00
-7.900000e+00 0.000000e+00
-7.850000e+00 0.000000e+00
-7.800000e+00 0.000000e+00
-7.750000e+00 0.000000e+00
-7.700000e+00 0.000000e+00
-7.650000e+00 0.000000e+00
-7.600000e+00 0.000000e+00
-7.550000e+00 0.000000e+00
-7.500000e+00 0.000000e+00
-7.450000e+00 0.000000e+00
-7.400000e+00 0.000000e+00
-7.350000e+00 0.000000e+00
-7.300000e+00 0.000000e+00
-7.250000e+00 0.000000e+00
-7.200000e+00 0.000000e+00
-7.150000e+00 0.000000e+00
-7.100000e+00 0.000000e+00
-7.050000e+00 0.000000e+00
-7.000000e+00 0.000000e+00
-6.950000e+00 0.000000e+00
-6.900000e+00 0.000000e+00
-6.850000e+00 0.000000e+00
-6.800000e+00 0.000000e+00
-6.750000e+00 0.000000e+00
-6.700000e+00 0.000000e+00
-6.650000e+00 0.000000e+00
-6.600000e+00 0.000000e+00
-6.550000e+00 0.000000e+00
-6.500000e+00 0.000000e+00
-6.450000e+00 0.000000e+00
-6.400000e+00 0.000000e+00
-6.350000e+00 0.000000e+00
-6.300000e+00 0.000000e+00
-6.250000e+00 0.000000e+00
-6.200000e+00 0.000000e+00
-6.150000e+00 0.000000e+00
-6.100000e+00 0.000000e+00
-6.050000e+00 0.000000e+00
-6.000000e+00 0.000000e+00
-5.950000e+00 0.000000e+00
-5.900000e+00 0.000000e+00
-5.850000e+00 0.000000e+00
-5.800000e+00 0.000000e+00
-5.750000e+00 0.000000e+00
-5.700000e+00 0.000000e+00
-5.650000e+00 0.000000e+00
-5.600000e+00 0.000000e+00
-5.550000e+00 0.000000e+00
-5.500000e+00 0.000000e+00
-5.450000e+00 0.000000e+00
-5.400000e+00 0.000000e+00
-5.350000e+00 0.000000e+00
-5.300000e+00 0.000000e+00
-5.250000e+00 0.000000e+00
-5.200000e+00 0.000000e+00
-5.150000e+00 0.000000e+00
-5.100000e+00 0.000000e+00
-5.050000e+00 0.000000e+00
-5.000000e+00 0.000000e+00
-4.950000e+00 0.000000e+00
-4.900000e+00 0.000000e+00
-4.850000e+00 0.000000e+00
-4.800000e+00 0.000000e+00
-4.750000e+00 0.000000e+00
-4.700000e+00 0.000000e+00
-4.650000e+00 0.000000e+00
-4.600000e+00 0.000000e+00
-4.550000e+00 0.000000e+00
-4.500000e+00 0.000000e+00
-4.450000e+00 0.000000e+00
-4.400000e+00 0.000000e+00
-4.350000e+00 0.000000e+00
-4.300000e+00 0.000000e+00
-4.250000e+00 0.000000e+00
-4.200000e+00 0.000000e+00
-4.150000e+00 0.000000e+00
-4.100000e+00 0.000000e+00
-4.050000e+00 0.000000e+00
-4.000000e+00 0.000000e+00
-3.950000e+00 0.000000e+00
-3.900000e+00 0.000000e+00
-3.850000e+00 0.000000e+00
-3.800000e+00 0.000000e+00
-3.750000e+00 0.000000e+00
-3.700000e+00 0.000000e+00
-3.650000e+00 0.000000e+00
-3.600000e+00 0.000000e+00
-3.550000e+00 0.000000e+00
-3.500000e+00 0.000000e+00
-3.450000e+00 0.000000e+00
-3.400000e+00 0.000000e+00
-3.350000e+00 0.000000e+00
-3.300000e+00 0.000000e+00
-3.250000e+00 0.000000e+00
-3.200000e+00 0.000000e+00
-3.150000e+00 0.000000e+00
-3.100000e+00 0.000000e+00
-3.050000e+00 0.000000e+00
-3.000000e+00 0.000000e+00
-2.950000e+00 0.000000e+00
-2.900000e+00 0.000000e+00
-2.850000e+00 0.000000e+00
-2.800000e+00 0.000000e+00
-2.750000e+00 0.000000e+00
-2.700000e+00 0.000000e+00
-2.650000e+00 0.000000e+00
-2.600000e+00 0.000000e+00
-2.550000e+00 0.000000e+00
-2.500000e+00 0.000000e+00
-2.450000e+00 0.000000e+00
-2.400000e+00 0.000000e+00
-2.350000e+00 0.000000e+00
-2.300000e+00 0.000000e+00
-2.250000e+00 0.000000e+00
-2.200000e+00 0.000000e+00
-2.150000e+00 0.000000e+00
-2.100000e+00 0.000000e+00
-2.050000e+00 0.000000e+00
-2.000000e+00 0.000000e+00
-1.950000e+00 0.000000e+00
-1.900000e+00 0.000000e+00
-1.850000e+00 0.000000e+00
-1.800000e+00 0.000000e+00
-1.750000e+00 0.000000e+00
-1.700000e+00 0.000000e+00
-1.650000e+00 0.000000e+00
-1.600000e+00 0.000000e+00
-1.550000e+00 0.000000e+00
-1.500000e+00 0.000000e+00
-1.450000e+00 0.000000e+00
-1.400000e+00 -1.401298e-45
-1.350000e+00 1.401298e-45
-1.300000e+00 2.802597e-45
-1.250000e+00 2.802597e-45
-1.200000e+00 -1.121039e-44
-1.150000e+00 -9.809089e-45
-1.100000e+00 -4.203895e-45
-1.050000e+00 2.522337e-44
-1.000000e+00 6.165713e-44
-9.499998e-01 7.567012e-44
-9.000001e-01 5.465064e-44
-8.499999e-01 1.401298e-44
-7.999997e-01 1.401298e-44
-7.500000e-01 1.219130e-43
-6.999998e-01 1.975831e-43
-6.500001e-01 8.547921e-44
-5.999999e-01 -3.615350e-43
-5.499997e-01 -8.688050e-43
-5.000000e-01 -6.978466e-43
-4.499998e-01 8.898245e-43
-4.000001e-01 3.064640e-42
-3.499999e-01 3.122093e-42
-2.999997e-01 -1.443337e-42
-2.500000e-01 -9.276596e-42
-1.999998e-01 -1.235525e-41
-1.500001e-01 -7.356817e-43
-9.999990e-02 2.516872e-41
-4.999971e-02 4.323146e-41
0.000000e+00 1.818885e-41
5.000019e-02 -6.062578e-41
1.000004e-01 -1.373609e-40
1.500006e-01 -9.895830e-41
1.999998e-01 1.218863e-40
2.500000e-01 4.020241e-40
3.000002e-01 4.050341e-40
3.500004e-01 -1.611886e-40
4.000006e-01 -1.084622e-39
4.499998e-01 -1.434485e-39
5.000000e-01 -1.405222e-40
5.500002e-01 2.652006e-39
6.000004e-01 4.575052e-39
6.500006e-01 2.119265e-39
6.999998e-01 -5.652799e-39
7.500000e-01 -1.332367e-38
8.000002e-01 -1.038162e-38
8.500004e-01 9.386647e-39
9.000006e-01 3.542595e-38
9.499998e-01 3.881342e-38
1.000000e+00 -6.203649e-39
1.050000e+00 -8.497340e-38
1.100000e+00 -1.246912e-37
1.150001e+00 -3.738023e-38
1.200000e+00 1.782640e-37
1.250000e+00 3.571649e-37
1.300000e+00 2.342182e-37
1.350000e+00 -3.005678e-37
1.400001e+00 -9.231318e-37
1.450000e+00 -9.119239e-37
1.500000e+00 2.735256e-37
1.550000e+00 2.145538e-36
1.600000e+00 2.922236e-36
1.650001e+00 6.749068e-37
1.700000e+00 -4.363871e-36
1.750000e+00 -8.256199e-36
1.800000e+00 -5.151081e-36
1.850000e+00 7.041301e-36
1.900001e+00 2.090940e-35
1.950000e+00 2.075252e-35
2.000000e+00 -5.055322e-36
2.050000e+00 -4.654766e-35
2.100000e+00 -6.653176e-35
2.150001e+00 -2.311597e-35
2.200000e+00 8.413740e-35
2.250000e+00 1.805162e-34
2.300000e+00 1.442050e-34
2.350000e+00 -8.907820e-35
2.400001e+00 -4.074840e-34
2.450000e+00 -5.158073e-34
2.500000e+00 -1.303047e-34
2.550000e+00 6.960894e-34
2.600000e+00 1.386656e-33
2.650001e+00 1.095370e-33
2.700000e+00 -5.697066e-34
2.750000e+00 -2.818306e-33
2.800000e+00 -3.719871e-33
2.850000e+00 -1.466497e-33
2.900001e+00 3.700661e-33
2.950000e+00 8.493015e-33
3.000000e+00 8.068867e-33
3.050000e+00 -9.326824e-35
3.100000e+00 -1.255198e-32
3.150001e+00 -2.023288e-32
3.200000e+00 -1.431601e-32
3.250000e+00 5.615356e-33
3.300000e+00 2.824323e-32
3.350000e+00 3.712881e-32
3.400001e+00 2.400299e-32
3.450000e+00 -3.124638e-33
3.500000e+00 -2.775467e-32
3.550000e+00 -4.437204e-32
3.600000e+00 -6.719102e-32
3.650001e+00 -1.059940e-31
3.700000e+00 -1.191024e-31
3.750000e+00 1.805670e-34
3.800000e+00 3.380812e-31
3.850000e+00 7.844194e-31
3.900001e+00 9.121286e-31
3.950000e+00 1.406878e-31
4.000000e+00 -1.714107e-30
4.050000e+00 -3.774075e-30
4.100000e+00 -3.986854e-30
4.150001e+00 -2.322845e-31
4.200000e+00 7.443666e-30
4.250000e+00 1.486214e-29
4.300000e+00 1.431504e-29
4.350000e+00 -7.069137e-31
4.400001e+00 -2.803719e-29
4.450000e+00 -5.180461e-29
4.500000e+00 -4.665717e-29
4.550000e+00 5.730016e-30
4.600000e+00 9.421262e-29
4.650001e+00 1.662523e-28
4.700000e+00 1.449497e-28
4.750000e+00 -1.989292e-29
4.800000e+00 -2.884838e-28
4.850000e+00 -5.027040e-28
4.900001e+00 -4.407407e-28
4.950000e+00 3.717106e-29
5.000000e+00 8.157454e-28
5.050000e+00 1.451687e-27
5.100000e+00 1.325167e-27
5.150001e+00 3.329313e-29
5.200000e+00 -2.142909e-27
5.250000e+00 -4.029156e-27
5.300000e+00 -3.932890e-27
5.350000e+00 -6.628513e-28
5.400001e+00 5.218951e-27
5.450000e+00 1.075462e-26
5.500000e+00 1.142577e-26
5.550000e+00 3.704312e-27
5.600000e+00 -1.162923e-26
5.650001e+00 -2.749652e-26
5.700000e+00 -3.216653e-26
5.750000e+00 -1.540754e-26
5.800000e+00 2.290456e-26
5.850000e+00 6.681102e-26
5.900001e+00 8.692978e-26
5.950000e+00 5.465141e-26
6.000000e+00 -3.623808e-26
6.050000e+00 -1.524308e-25
6.100000e+00 -2.235937e-25
6.150001e+00 -1.733270e-25
6.200000e+00 2.874910e-26
6.250000e+00 3.204433e-25
6.300000e+00 5.425542e-25
6.350000e+00 5.015394e-25
6.400001e+00 8.877240e-26
6.450000e+00 -5.998460e-25
6.500000e+00 -1.228214e-24
6.550000e+00 -1.334365e-24
6.600000e+00 -5.874008e-25
6.650001e+00 9.232325e-25
6.700000e+00 2.549817e-24
6.750000e+00 3.263135e-24
6.800000e+00 2.165764e-24
6.850000e+00 -8.543179e-25
6.900001e+00 -4.704154e-24
6.950000e+00 -7.275838e-24
7.000000e+00 -6.373513e-24
7.050000e+00 -1.075154e-24
7.100000e+00 7.170390e-24
7.150001e+00 1.450403e-23
7.200000e+00 1.609035e-23
7.250000e+00 8.672693e-24
7.300000e+00 -6.903637e-24
7.350000e+00 -2.470460e-23
7.400001e+00 -3.532332e-23
7.450000e+00 -2.998846e-23
7.500000e+00 -5.638782e-24
7.550000e+00 3.148256e-23
7.600000e+00 6.600332e-23
7.650001e+00 7.832889e-23
7.700000e+00 5.321697e-23
7.750000e+00 -1.096146e-23
7.800000e+00 -9.632625e-23
7.850000e+00 -1.667689e-22
7.900001e+00 -1.785349e-22
7.950000e+00 -9.911354e-23
8.000000e+00 7.077884e-23
8.050001e+00 2.816200e-22
8.100000e+00 4.375536e-22
8.150000e+00 4.255670e-22
8.200001e+00 1.698712e-22
8.250000e+00 -3.059272e-22
8.300001e+00 -8.411944e-22
8.350000e+00 -1.160906e-21
8.400000e+00 -9.769959e-22
8.450001e+00 -1.486498e-22
8.500000e+00 1.163894e-21
8.550001e+00 2.445641e-21
8.600000e+00 2.952298e-21
8.650000e+00 2.026319e-21
8.700001e+00 -4.885694e-22
8.750000e+00 -3.923093e-21
8.800001e+00 -6.770763e-21
8.850000e+00 -7.139559e-21
8.900000e+00 -3.633761e-21
8.950001e+00 3.617667e-21
9.000000e+00 1.228868e-20
9.050001e+00 1.809888e-20
9.100000e+00 1.630519e-20
9.150000e+00 4.231840e-21
9.200001e+00 -1.610476e-20
9.250000e+00 -3.680772e-20
9.300001e+00 -4.585230e-20
9.350000e+00 -3.227523e-20
9.400000e+00 6.624154e-21
9.450001e+00 5.957009e-20
9.500000e+00 1.014801e-19
9.550001e+00 1.023507e-19
9.600000e+00 4.342034e-20
9.650000e+00 -6.627648e-20
9.700001e+00 -1.833139e-19
9.750000e+00 -2.417581e-19
9.800001e+00 -1.838145e-19
9.850000e+00 2.334308e-21
9.900000e+00 2.580776e-19
9.950001e+00 4.630704e-19
1.000000e+01 4.832727e-19
1.005000e+01 2.427958e-19
1.010000e+01 -2.146978e-19
1.015000e+01 -7.126914e-19
1.020000e+01 -9.968447e-19
1.025000e+01 -8.463000e-19
1.030000e+01 -1.976465e-19
1.035000e+01 7.765689e-19
1.040000e+01 1.682250e-18
1.045000e+01 2.027250e-18
1.050000e+01 1.429717e-18
1.055000e+01 -1.519356e-19
1.060000e+01 -2.261677e-18
1.065000e+01 -3.969182e-18
1.070000e+01 -4.157066e-18
1.075000e+01 -2.063744e-18
1.080000e+01 2.089573e-18
1.085000e+01 6.735046e-18
1.090000e+01 9.260472e-18
1.095000e+01 7.170341e-18
1.100000e+01 -2.076201e-19
1.105000e+01 -1.038030e-17
1.110000e+01 -1.788138e-17
1.115000e+01 -1.666910e-17
1.120000e+01 -4.092270e-18
1.125000e+01 1.573740e-17
1.130000e+01 3.196550e-17
1.135000e+01 3.197663e-17
1.140000e+01 9.843112e-18
1.145000e+01 -2.661427e-17
1.150000e+01 -5.612909e-17
1.155000e+01 -5.457385e-17
1.160000e+01 -1.202864e-17
1.165000e+01 5.413835e-17
1.170000e+01 1.019527e-16
1.175000e+01 8.762760e-17
1.180000e+01 -1.158090e-18
1.185000e+01 -1.232931e-16
1.190000e+01 -1.953286e-16
1.195000e+01 -1.401394e-16
1.200000e+01 5.007477e-17
1.205000e+01 2.801514e-16
1.210000e+01 3.855491e-16
1.215000e+01 2.331484e-16
1.220000e+01 -1.632188e-16
1.225000e+01 -5.964940e-16
1.230000e+01 -7.512894e-16
1.235000e+01 -4.035175e-16
1.240000e+01 3.760565e-16
1.245000e+01 1.168125e-15
1.250000e+01 1.394878e-15
1.255000e+01 6.948844e-16
1.260000e+01 -7.362795e-16
1.265000e+01 -2.106354e-15
1.270000e+01 -2.415418e-15
1.275000e+01 -1.120822e-15
1.280000e+01 1.329327e-15
1.285000e+01 3.528869e-15
1.290000e+01 3.856612e-15
1.295000e+01 1.588013e-15
1.300000e+01 -2.338641e-15
1.305000e+01 -5.561313e-15
1.310000e+01 -5.635301e-15
1.315000e+01 -1.781471e-15
1.320000e+01 4.140931e-15
1.325000e+01 8.353348e-15
1.330000e+01 7.462508e-15
1.335000e+01 1.035083e-15
1.340000e+01 -7.405270e-15
1.345000e+01 -1.208371e-14
1.350000e+01 -8.755821e-15
1.355000e+01 1.777286e-15
1.360000e+01 1.313055e-14
1.365000e+01 1.688544e-14
1.370000e+01 8.507183e-15
1.375000e+01 -8.308572e-15
1.380000e+01 -2.254693e-14
1.385000e+01 -2.259930e-14
1.390000e+01 -5.042809e-15
1.395000e+01 2.076901e-14
1.400000e+01 3.683792e-14
1.405000e+01 2.830191e-14
1.410000e+01 -4.347748e-15
1.415000e+01 -4.190474e-14
1.420000e+01 -5.666469e-14
1.425000e+01 -3.164330e-14
1.430000e+01 2.379768e-14
1.435000e+01 7.476567e-14
1.440000e+01 8.138848e-14
1.445000e+01 2.804769e-14
1.450000e+01 -5.901581e-14
1.455000e+01 -1.218900e-13
1.460000e+01 -1.076493e-13
1.465000e+01 -9.625405e-15
1.470000e+01 1.170917e-13
1.475000e+01 1.835650e-13
1.480000e+01 1.268453e-13
1.485000e+01 -3.667012e-14
1.490000e+01 -2.063860e-13
1.495000e+01 -2.555420e-13
1.500000e+01 -1.217523e-13
1.505000e+01 1.317677e-13
1.510000e+01 3.372938e-13
1.515000e+01 3.278139e-13
1.520000e+01 6.446870e-14
1.525000e+01 -3.060603e-13
1.530000e+01 -5.230948e-13
1.535000e+01 -3.858594e-13
1.540000e+01 8.043734e-14
1.545000e+01 5.942407e-13
1.550000e+01 7.752414e-13
1.555000e+01 4.107825e-13
1.560000e+01 -3.472082e-13
1.565000e+01 -1.018104e-12
1.570000e+01 -1.083159e-12
1.575000e+01 -3.653988e-13
1.580000e+01 7.676925e-13
1.585000e+01 1.566561e-12
1.590000e+01 1.379341e-12
1.595000e+01 1.544204e-13
1.600000e+01 -1.404056e-12
1.605000e+01 -2.211306e-12
1.610000e+01 -1.531734e-12
1.615000e+01 4.099327e-13
1.620000e+01 2.411676e-12
1.625000e+01 2.996116e-12
1.630000e+01 1.447648e-12
1.635000e+01 -1.517094e-12
1.640000e+01 -4.004936e-12
1.645000e+01 -4.107349e-12
1.650000e+01 -1.279263e-12
1.655000e+01 3.030084e-12
1.660000e+01 6.077154e-12
1.665000e+01 5.565124e-12
1.670000e+01 1.332832e-12
1.675000e+01 -4.234377e-12
1.680000e+01 -7.556266e-12
1.685000e+01 -6.246084e-12
1.690000e+01 -9.475490e-13
1.695000e+01 4.796146e-12
1.700000e+01 6.819341e-12
1.705000e+01 3.380022e-12
1.710000e+01 -3.176320e-12
1.715000e+01 -7.589841e-12
1.720000e+01 -5.273486e-12
1.725000e+01 3.964481e-12
1.730000e+01 1.480618e-11
1.735000e+01 1.918537e-11
1.740000e+01 1.156659e-11
1.745000e+01 -6.642522e-12
1.750000e+01 -2.679891e-11
1.755000e+01 -3.761585e-11
1.760000e+01 -3.204245e-11
1.765000e+01 -1.192519e-11
1.770000e+01 1.295195e-11
1.775000e+01 3.117299e-11
1.780000e+01 3.718554e-11
1.785000e+01 3.456833e-11
1.790000e+01 3.225711e-11
1.795000e+01 3.594254e-11
1.800000e+01 4.088477e-11
1.805000e+01 3.229201e-11
1.810000e+01 -5.318127e-12
1.815000e+01 -7.488058e-11
1.820000e+01 -1.585683e-10
1.825000e+01 -2.214477e-10
1.830000e+01 -2.266831e-10
1.835000e+01 -1.541845e-10
1.840000e+01 -1.164889e-11
1.845000e+01 1.686586e-10
1.850000e+01 3.447964e-10
1.855000e+01 4.813342e-10
1.860000e+01 5.558958e-10
1.865000e+01 5.527812e-10
1.870000e+01 4.512389e-10
1.875000e+01 2.219566e-10
1.880000e+01 -1.588718e-10
1.885000e+01 -6.812818e-10
1.890000e+01 -1.275444e-09
1.895000e+01 -1.807621e-09
1.900000e+01 -2.108061e-09
1.905000e+01 -2.022317e-09
1.910000e+01 -1.462519e-09
1.915000e+01 -4.341514e-10
1.920000e+01 9.714064e-10
1.925000e+01 2.607137e-09
1.930000e+01 4.299002e-09
1.935000e+01 5.853368e-09
1.940000e+01 7.043932e-09
1.945000e+01 7.599989e-09
1.950000e+01 7.223766e-09
1.955000e+01 5.647880e-09
1.960000e+01 2.714325e-09
1.965000e+01 -1.566458e-09
1.970000e+01 -7.015903e-09
1.975000e+01 -1.335754e-08
1.980000e+01 -2.032822e-08
1.985000e+01 -2.777690e-08
1.990000e+01 -3.570582e-08
1.995000e+01 -4.424531e-08
2.000000e+01 -5.359503e-08
2.005000e+01 -6.398282e-08
2.010000e+01 -7.567321e-08
2.015000e+01 -8.901511e-08
2.020000e+01 -1.044813e-07
2.025000e+01 -1.226507e-07
2.030000e+01 -1.441232e-07
2.035000e+01 -1.694072e-07
2.040000e+01 -1.988576e-07
2.045000e+01 -2.327160e-07
2.050000e+01 -2.712557e-07
2.055000e+01 -3.149611e-07
2.060000e+01 -3.646490e-07
2.065000e+01 -4.214706e-07
2.070000e+01 -4.868025e-07
2.075000e+01 -5.621060e-07
2.080000e+01 -6.488451e-07
2.085000e+01 -7.485153e-07
2.090000e+01 -8.627518e-07
2.095000e+01 -9.934354e-07
2.100000e+01 -1.142720e-06
2.105000e+01 -1.312967e-06
2.110000e+01 -1.506648e-06
2.115000e+01 -1.726312e-06
2.120000e+01 -1.974686e-06
2.125000e+01 -2.254873e-06
2.130000e+01 -2.570569e-06
2.135000e+01 -2.926171e-06
2.140000e+01 -3.326739e-06
2.145000e+01 -3.777847e-06
2.150000e+01 -4.285434e-06
2.155000e+01 -4.855768e-06
2.160000e+01 -5.495528e-06
2.165000e+01 -6.211956e-06
2.170000e+01 -7.012984e-06
2.175000e+01 -7.907244e-06
2.180000e+01 -8.904030e-06
2.185000e+01 -1.001323e-05
2.190000e+01 -1.124545e-05
2.195000e+01 -1.261211e-05
2.200000e+01 -1.412577e-05
2.205000e+01 -1.580019e-05
2.210000e+01 -1.765030e-05
2.215000e+01 -1.969198e-05
2.220000e+01 -2.194180e-05
2.225000e+01 -2.441697e-05
2.230000e+01 -2.713540e-05
2.235000e+01 -3.011596e-05
2.240000e+01 -3.337870e-05
2.245000e+01 -3.694498e-05
2.250000e+01 -4.083728e-05
2.255000e+01 -4.507904e-05
2.260000e+01 -4.969445e-05
2.265000e+01 -5.470842e-05
2.270000e+01 -6.014671e-05
2.275000e+01 -6.603587e-05
2.280000e+01 -7.240328e-05
2.285000e+01 -7.927668e-05
2.290000e+01 -8.668383e-05
2.295000e+01 -9.465215e-05
2.300000e+01 -1.032087e-04
2.305000e+01 -1.123800e-04
2.310000e+01 -1.221930e-04
2.315000e+01 -1.326741e-04
2.320000e+01 -1.438495e-04
2.325000e+01 -1.557443e-04
2.330000e+01 -1.683816e-04
2.335000e+01 -1.817823e-04
2.340000e+01 -1.959645e-04
2.345000e+01 -2.109437e-04
2.350000e+01 -2.267327e-04
2.355000e+01 -2.433415e-04
2.360000e+01 -2.607770e-04
2.365000e+01 -2.790416e-04
2.370000e+01 -2.981334e-04
2.375000e+01 -3.180446e-04
2.380000e+01 -3.387619e-04
2.385000e+01 -3.602660e-04
2.390000e+01 -3.825319e-04
2.395000e+01 -4.055279e-04
2.400000e+01 -4.292161e-04
2.405000e+01 -4.535509e-04
2.410000e+01 -4.784792e-04
2.415000e+01 -5.039393e-04
2.420000e+01 -5.298617e-04
2.425000e+01 -5.561677e-04
2.430000e+01 -5.827700e-04
2.435000e+01 -6.095725e-04
2.440000e+01 -6.364706e-04
2.445000e+01 -6.633505e-04
2.450000e+01 -6.900901e-04
2.455000e+01 -7.165590e-04
2.460000e+01 -7.426187e-04
2.465000e+01 -7.681229e-04
2.470000e+01 -7.929175e-04
2.475000e+01 -8.168414e-04
2.480000e+01 -8.397266e-04
2.485000e+01 -8.613989e-04
2.490000e+01 -8.816791e-04
2.495000e+01 -9.003842e-04
2.500000e+01 -9.173277e-04
2.505000e+01 -9.323215e-04
2.510000e+01 -9.451768e-04
2.515000e+01 -9.557051e-04
2.520000e+01 -9.637204e-04
2.525000e+01 -9.690397e-04
2.530000e+01 -9.714845e-04
2.535000e+01 -9.708827e-04
2.540000e+01 -9.670680e-04
2.545000e+01 -9.598835e-04
2.550000e+01 -9.491821e-04
2.555000e+01 -9.348283e-04
2.560000e+01 -9.167011e-04
2.565000e+01 -8.946955e-04
2.570000e+01 -8.687239e-04
2.575000e+01 -8.387177e-04
2.580000e+01 -8.046272e-04
2.585000e+01 -7.664226e-04
2.590000e+01 -7.240953e-04
2.595000e+01 -6.776582e-04
2.600000e+01 -6.271487e-04
2.605000e+01 -5.726280e-04
2.610000e+01 -5.141837e-04
2.615000e+01 -4.519293e-04
2.620000e+01 -3.860045e-04
2.625000e+01 -3.165742e-04
2.630000e+01 -2.438284e-04
2.635000e+01 -1.679816e-04
2.640000e+01 -8.927246e-05
2.645000e+01 -7.963136e-06
2.650000e+01 7.566113e-05
2.655000e+01 1.612933e-04
2.660000e+01 2.486063e-04
2.665000e+01 3.372544e-04
2.670000e+01 4.268759e-04
2.675000e+01 5.170951e-04
2.680000e+01 6.075245e-04
2.685000e+01 6.977665e-04
2.690000e+01 7.874161e-04
2.695000e+01 8.760632e-04
2.700000e+01 9.632952e-04
2.705000e+01 1.048699e-03
2.710000e+01 1.131867e-03
2.715000e+01 1.212394e-03
2.720000e+01 1.289887e-03
2.725000e+01 1.363963e-03
2.730000e+01 1.434253e-03
2.735000e+01 1.500408e-03
2.740000e+01 1.562095e-03
2.745000e+01 1.619004e-03
2.750000e+01 1.670850e-03
2.755000e+01 1.717373e-03
2.760000e+01 1.758342e-03
2.765000e+01 1.793554e-03
2.770000e+01 1.822840e-03
2.775000e+01 1.846060e-03
2.780000e+01 1.863109e-03
2.785000e+01 1.873918e-03
2.790000e+01 1.878451e-03
2.795000e+01 1.876708e-03
2.800000e+01 1.868722e-03
2.805000e+01 1.854562e-03
2.810000e+01 1.834332e-03
2.815000e+01 1.808167e-03
2.820000e+01 1.776232e-03
2.825000e+01 1.738723e-03
2.830000e+01 1.695868e-03
2.835000e+01 1.647919e-03
2.840000e+01 1.595155e-03
2.845000e+01 1.537877e-03
2.850000e+01 1.476409e-03
2.855000e+01 1.411091e-03
2.860000e+01 1.342277e-03
2.865000e+01 1.270335e-03
2.870000e+01 1.195644e-03
2.875000e+01 1.118590e-03
2.880000e+01 1.039565e-03
2.885000e+01 9.589633e-04
2.890000e+01 8.771801e-04
2.895000e+01 7.946061e-04
2.900000e+01 7.116264e-04
2.905000e+01 6.286179e-04
2.910000e+01 5.459473e-04
2.915000e+01 4.639697e-04
2.920000e+01 3.830255e-04
2.925000e+01 3.034395e-04
2.930000e+01 2.255189e-04
2.935000e+01 1.495518e-04
2.940000e+01 7.580534e-05
2.945000e+01 4.525328e-06
