-8.000000e+00 0.000000e+00
-7.990000e+00 0.000000e+00
-7.980000e+00 0.000000e+00
-7.970000e+00 0.000000e+00
-7.960000e+00 0.000000e+00
-7.950000e+00 0.000000e+00
-7.940000e+00 0.000000e+00
-7.930000e+00 0.000000e+00
-7.920000e+00 0.000000e+00
-7.910000e+00 0.000000e+00
-7.900000e+00 0.000000e+00
-7.890000e+00 0.000000e+00
-7.880000e+00 0.000000e+00
-7.870000e+00 0.000000e+00
-7.860000e+00 0.000000e+00
-7.850000e+00 0.000000e+00
-7.840000e+00 0.000000e+00
-7.830000e+00 0.000000e+00
-7.820000e+00 0.000000e+00
-7.810000e+00 0.000000e+00
-7.800000e+00 0.000000e+00
-7.790000e+00 0.000000e+00
-7.780000e+00 0.000000e+00
-7.770000e+00 0.000000e+00
-7.760000e+00 0.000000e+00
-7.750000e+00 0.000000e+00
-7.740000e+00 0.000000e+00
-7.730000e+00 0.000000e+00
-7.720000e+00 0.000000e+00
-7.710000e+00 0.000000e+00
-7.700000e+00 0.000000e+00
-7.690000e+00 0.000000e+00
-7.680000e+00 0.000000e+00
-7.670000e+00 0.000000e+00
-7.660000e+00 0.000000e+00
-7.650000e+00 0.000000e+00
-7.640000e+00 0.000000e+00
-7.630000e+00 -1.401298e-45
-7.620000e+00 -4.203895e-45
-7.610000e+00 -5.605194e-45
-7.600000e+00 -1.821688e-44
-7.590000e+00 -3.783506e-44
-7.580000e+00 -7.426882e-44
-7.570000e+00 -1.499389e-43
-7.560000e+00 -2.844636e-43
-7.550000e+00 -5.437038e-43
-7.540000e+00 -1.014540e-42
-7.530000e+00 -1.848313e-42
-7.520000e+00 -3.333689e-42
-7.510000e+00 -5.931696e-42
-7.500000e+00 -1.041725e-41
-7.490000e+00 -1.808095e-41
-7.480000e+00 -3.099672e-41
-7.470000e+00 -5.255850e-41
-7.460000e+00 -8.811645e-41
-7.450000e+00 -1.461554e-40
-7.440000e+00 -2.399093e-40
-7.430000e+00 -3.898679e-40
-7.420000e+00 -6.273865e-40
-7.410000e+00 -1.000016e-39
-7.400000e+00 -1.579307e-39
-7.390000e+00 -2.471812e-39
-7.380000e+00 -3.834948e-39
-7.370000e+00 -5.899151e-39
-7.360000e+00 -8.999150e-39
-7.350000e+00 -1.361699e-38
-7.340000e+00 -2.044147e-38
-7.330000e+00 -3.044897e-38
-7.320000e+00 -4.501280e-38
-7.310000e+00 -6.605012e-38
-7.300000e+00 -9.621708e-38
-7.290000e+00 -1.391663e-37
-7.280000e+00 -1.998850e-37
-7.270000e+00 -2.851324e-37
-7.260000e+00 -4.040051e-37
-7.250000e+00 -5.686588e-37
-7.240000e+00 -7.952225e-37
-7.230000e+00 -1.104950e-36
-7.220000e+00 -1.525653e-36
-7.210000e+00 -2.093474e-36
-7.200000e+00 -2.855057e-36
-7.190000e+00 -3.870185e-36
-7.180000e+00 -5.214950e-36
-7.170000e+00 -6.985526e-36
-7.160000e+00 -9.302618e-36
-7.150000e+00 -1.231666e-35
-7.140000e+00 -1.621376e-35
-7.130000e+00 -2.122249e-35
-7.120000e+00 -2.762151e-35
-7.110000e+00 -3.574791e-35
-7.100000e+00 -4.600629e-35
-7.090000e+00 -5.887828e-35
-7.080000e+00 -7.493226e-35
-7.070000e+00 -9.483336e-35
-7.060000e+00 -1.193521e-34
-7.050000e+00 -1.493725e-34
-7.040000e+00 -1.858977e-34
-7.030000e+00 -2.300526e-34
-7.020000e+00 -2.830820e-34
-7.010000e+00 -3.463436e-34
-7.000000e+00 -4.212919e-34
-6.990000e+00 -5.094541e-34
-6.980000e+00 -6.123959e-34
-6.970000e+00 -7.316686e-34
-6.960000e+00 -8.687451e-34
-6.950000e+00 -1.024935e-33
-6.940000e+00 -1.201279e-33
-6.930000e+00 -1.398417e-33
-6.920000e+00 -1.616437e-33
-6.910000e+00 -1.854699e-33
-6.900000e+00 -2.111617e-33
-6.890000e+00 -2.384434e-33
-6.880000e+00 -2.668966e-33
-6.870000e+00 -2.959323e-33
-6.860000e+00 -3.247623e-33
-6.850000e+00 -3.523692e-33
-6.840000e+00 -3.774774e-33
-6.830000e+00 -3.985272e-33
-6.820000e+00 -4.136504e-33
-6.810000e+00 -4.206536e-33
-6.800000e+00 -4.170089e-33
-6.790000e+00 -3.998560e-33
-6.780000e+00 -3.660185e-33
-6.770000e+00 -3.120358e-33
-6.760000e+00 -2.342194e-33
-6.750000e+00 -1.287292e-33
-6.740000e+00 8.320179e-35
-6.730000e+00 1.807236e-33
-6.720000e+00 3.920163e-33
-6.710000e+00 6.452694e-33
-6.700000e+00 9.428539e-33
-6.690000e+00 1.286163e-32
-6.680000e+00 1.675312e-32
-6.670000e+00 2.108799e-32
-6.660000e+00 2.583157e-32
-6.650000e+00 3.092579e-32
-6.640000e+00 3.628562e-32
-6.630000e+00 4.179548e-32
-6.620000e+00 4.730612e-32
-6.610000e+00 5.263188e-32
-6.600000e+00 5.754898e-32
-6.590000e+00 6.179459e-32
-6.580000e+00 6.506731e-32
-6.570000e+00 6.702932e-32
-6.560000e+00 6.731035e-32
-6.550000e+00 6.551393e-32
-6.540000e+00 6.122575e-32
-6.530000e+00 5.402514e-32
-6.520000e+00 4.349885e-32
-6.510000e+00 2.925798e-32
-6.500000e+00 1.095748e-32
-6.490000e+00 -1.168147e-32
-6.480000e+00 -3.884697e-32
-6.470000e+00 -7.060992e-32
-6.460000e+00 -1.068963e-31
-6.450000e+00 -1.474591e-31
-6.440000e+00 -1.918504e-31
-6.430000e+00 -2.393959e-31
-6.420000e+00 -2.891717e-31
-6.410000e+00 -3.399866e-31
-6.400000e+00 -3.903691e-31
-6.390000e+00 -4.385635e-31
-6.380000e+00 -4.825354e-31
-6.370000e+00 -5.199874e-31
-6.360000e+00 -5.483881e-31
-6.350000e+00 -5.650156e-31
-6.340000e+00 -5.670140e-31
-6.330000e+00 -5.514694e-31
-6.320000e+00 -5.154964e-31
-6.310000e+00 -4.563455e-31
-6.300000e+00 -3.715217e-31
-6.290000e+00 -2.589160e-31
-6.280000e+00 -1.169486e-31
-6.270000e+00 5.528145e-32
-6.260000e+00 2.578441e-31
-6.250000e+00 4.898272e-31
-6.240000e+00 7.491925e-31
-6.230000e+00 1.032646e-30
-6.220000e+00 1.335528e-30
-6.210000e+00 1.651725e-30
-6.200000e+00 1.973628e-30
-6.190000e+00 2.292112e-30
-6.180000e+00 2.596582e-30
-6.170000e+00 2.875057e-30
-6.160000e+00 3.114320e-30
-6.150000e+00 3.300127e-30
-6.140000e+00 3.417479e-30
-6.130000e+00 3.450958e-30
-6.120000e+00 3.385130e-30
-6.110000e+00 3.205007e-30
-6.100000e+00 2.896563e-30
-6.090000e+00 2.447299e-30
-6.080000e+00 1.846855e-30
-6.070000e+00 1.087639e-30
-6.060000e+00 1.654817e-31
-6.050000e+00 -9.197072e-31
-6.040000e+00 -2.163298e-30
-6.030000e+00 -3.555326e-30
-6.020000e+00 -5.079934e-30
-6.010000e+00 -6.714858e-30
-6.000000e+00 -8.431023e-30
-5.990000e+00 -1.019221e-29
-5.980000e+00 -1.195491e-29
-5.970000e+00 -1.366819e-29
-5.960000e+00 -1.527391e-29
-5.950000e+00 -1.670698e-29
-5.940000e+00 -1.789584e-29
-5.930000e+00 -1.876331e-29
-5.920000e+00 -1.922752e-29
-5.910000e+00 -1.920329e-29
-5.900000e+00 -1.860374e-29
-5.890000e+00 -1.734232e-29
-5.880000e+00 -1.533522e-29
-5.870000e+00 -1.250414e-29
-5.860000e+00 -8.779622e-30
-5.850000e+00 -4.104775e-30
-5.840000e+00 1.560511e-30
-5.830000e+00 8.234866e-30
-5.820000e+00 1.591032e-29
-5.810000e+00 2.454675e-29
-5.800000e+00 3.406614e-29
-5.790000e+00 4.434662e-29
-5.780000e+00 5.521653e-29
-5.770000e+00 6.644873e-29
-5.760000e+00 7.775570e-29
-5.750000e+00 8.878526e-29
-5.740000e+00 9.911789e-29
-5.730000e+00 1.082659e-28
-5.720000e+00 1.156745e-28
-5.710000e+00 1.207269e-28
-5.700000e+00 1.227520e-28
-5.690000e+00 1.210365e-28
-5.680000e+00 1.148419e-28
-5.670000e+00 1.034271e-28
-5.660000e+00 8.607535e-29
-5.650000e+00 6.212856e-29
-5.640000e+00 3.102658e-29
-5.630000e+00 -7.647954e-30
-5.620000e+00 -5.411953e-29
-5.610000e+00 -1.083657e-28
-5.600000e+00 -1.700609e-28
-5.590000e+00 -2.385187e-28
-5.580000e+00 -3.126371e-28
-5.570000e+00 -3.908462e-28
-5.560000e+00 -4.710670e-28
-5.550000e+00 -5.506781e-28
-5.540000e+00 -6.265008e-28
-5.530000e+00 -6.948045e-28
-5.520000e+00 -7.513343e-28
-5.510000e+00 -7.913705e-28
-5.500000e+00 -8.098187e-28
-5.490000e+00 -8.013390e-28
-5.480000e+00 -7.605113e-28
-5.470000e+00 -6.820433e-28
-5.460000e+00 -5.610190e-28
-5.450000e+00 -3.931842e-28
-5.440000e+00 -1.752666e-28
-5.430000e+00 9.467476e-29
-5.420000e+00 4.168834e-28
-5.410000e+00 7.895315e-28
-5.400000e+00 1.208356e-27
-5.390000e+00 1.666318e-27
-5.380000e+00 2.153310e-27
-5.370000e+00 2.655938e-27
-5.360000e+00 3.157380e-27
-5.350000e+00 3.637385e-27
-5.340000e+00 4.072391e-27
-5.330000e+00 4.435833e-27
-5.320000e+00 4.698619e-27
-5.310000e+00 4.829829e-27
-5.300000e+00 4.797619e-27
-5.290000e+00 4.570357e-27
-5.280000e+00 4.117964e-27
-5.270000e+00 3.413483e-27
-5.260000e+00 2.434815e-27
-5.250000e+00 1.166585e-27
-5.240000e+00 -3.978769e-28
-5.230000e+00 -2.254550e-27
-5.220000e+00 -4.386789e-27
-5.210000e+00 -6.763528e-27
-5.200000e+00 -9.337766e-27
-5.190000e+00 -1.204538e-26
-5.180000e+00 -1.480445e-26
-5.170000e+00 -1.751520e-26
-5.160000e+00 -2.006063e-26
-5.150000e+00 -2.230803e-26
-5.140000e+00 -2.411137e-26
-5.130000e+00 -2.531475e-26
-5.120000e+00 -2.575688e-26
-5.110000e+00 -2.527656e-26
-5.100000e+00 -2.371937e-26
-5.090000e+00 -2.094498e-26
-5.080000e+00 -1.683563e-26
-5.070000e+00 -1.130495e-26
-5.060000e+00 -4.307272e-27
-5.050000e+00 4.153125e-27
-5.040000e+00 1.401301e-26
-5.030000e+00 2.514205e-26
-5.020000e+00 3.733589e-26
-5.010000e+00 5.031094e-26
-5.000000e+00 6.370156e-26
-4.990000e+00 7.705984e-26
-4.980000e+00 8.985896e-26
-4.970000e+00 1.015001e-25
-4.960000e+00 1.113234e-25
-4.950000e+00 1.186237e-25
-4.940000e+00 1.226703e-25
-4.930000e+00 1.227318e-25
-4.920000e+00 1.181043e-25
-4.910000e+00 1.081448e-25
-4.900000e+00 9.230675e-26
-4.890000e+00 7.017808e-26
-4.880000e+00 4.152095e-26
-4.870000e+00 6.310709e-27
-4.860000e+00 -3.522674e-26
-4.850000e+00 -8.258107e-26
-4.840000e+00 -1.349295e-25
-4.830000e+00 -1.911160e-25
-4.820000e+00 -2.496408e-25
-4.810000e+00 -3.086608e-25
-4.800000e+00 -3.660048e-25
-4.790000e+00 -4.192026e-25
-4.780000e+00 -4.655325e-25
-4.770000e+00 -5.020841e-25
-4.760000e+00 -5.258420e-25
-4.750000e+00 -5.337838e-25
-4.740000e+00 -5.229980e-25
-4.730000e+00 -4.908119e-25
-4.720000e+00 -4.349367e-25
-4.710000e+00 -3.536165e-25
-4.700000e+00 -2.457825e-25
-4.690000e+00 -1.112051e-25
-4.680000e+00 4.936289e-26
-4.670000e+00 2.340574e-25
-4.660000e+00 4.397979e-25
-4.650000e+00 6.622112e-25
-4.640000e+00 8.955951e-25
-4.630000e+00 1.132926e-24
-4.620000e+00 1.365918e-24
-4.610000e+00 1.585145e-24
-4.600000e+00 1.780216e-24
-4.590000e+00 1.940026e-24
-4.580000e+00 2.053065e-24
-4.570000e+00 2.107792e-24
-4.560000e+00 2.093074e-24
-4.550000e+00 1.998666e-24
-4.540000e+00 1.815741e-24
-4.530000e+00 1.537440e-24
-4.520000e+00 1.159435e-24
-4.510000e+00 6.804776e-25
-4.500000e+00 1.029177e-25
-4.490000e+00 -5.668395e-25
-4.480000e+00 -1.317960e-24
-4.470000e+00 -2.134922e-24
-4.460000e+00 -2.997388e-24
-4.450000e+00 -3.880254e-24
-4.440000e+00 -4.753870e-24
-4.430000e+00 -5.584482e-24
-4.420000e+00 -6.334878e-24
-4.410000e+00 -6.965270e-24
-4.400000e+00 -7.434403e-24
-4.390000e+00 -7.700885e-24
-4.380000e+00 -7.724706e-24
-4.370000e+00 -7.468951e-24
-4.360000e+00 -6.901604e-24
-4.350000e+00 -5.997503e-24
-4.340000e+00 -4.740240e-24
-4.330000e+00 -3.124083e-24
-4.320000e+00 -1.155725e-24
-4.310000e+00 1.144140e-24
-4.300000e+00 3.739565e-24
-4.290000e+00 6.578456e-24
-4.280000e+00 9.592180e-24
-4.270000e+00 1.269571e-23
-4.260000e+00 1.578840e-23
-4.250000e+00 1.875547e-23
-4.240000e+00 2.147019e-23
-4.230000e+00 2.379682e-23
-4.220000e+00 2.559439e-23
-4.210000e+00 2.672104e-23
-4.200000e+00 2.703917e-23
-4.190000e+00 2.642102e-23
-4.180000e+00 2.475482e-23
-4.170000e+00 2.195104e-23
-4.160000e+00 1.794890e-23
-4.150000e+00 1.272252e-23
-4.140000e+00 6.286902e-24
-4.130000e+00 -1.297037e-24
-4.120000e+00 -9.918150e-24
-4.110000e+00 -1.941211e-23
-4.100000e+00 -2.955995e-23
-4.090000e+00 -4.008842e-23
-4.080000e+00 -5.067226e-23
-4.070000e+00 -6.093882e-23
-4.060000e+00 -7.047485e-23
-4.050000e+00 -7.883580e-23
-4.040000e+00 -8.555753e-23
-4.030000e+00 -9.017010e-23
-4.020000e+00 -9.221398e-23
-4.010000e+00 -9.125787e-23
-4.000000e+00 -8.691777e-23
-3.990000e+00 -7.887727e-23
-3.980000e+00 -6.690793e-23
-3.970000e+00 -5.088921e-23
-3.960000e+00 -3.082743e-23
-3.950000e+00 -6.872582e-24
-3.940000e+00 2.066766e-23
-3.930000e+00 5.131763e-23
-3.920000e+00 8.442794e-23
-3.910000e+00 1.191751e-22
-3.900000e+00 1.545675e-22
-3.890000e+00 1.894573e-22
-3.880000e+00 2.225603e-22
-3.870000e+00 2.524824e-22
-3.860000e+00 2.777541e-22
-3.850000e+00 2.968714e-22
-3.840000e+00 3.083432e-22
-3.830000e+00 3.107451e-22
-3.820000e+00 3.027771e-22
-3.810000e+00 2.833245e-22
-3.800000e+00 2.515202e-22
-3.790000e+00 2.068073e-22
-3.780000e+00 1.489963e-22
-3.770000e+00 7.832096e-23
-3.760000e+00 -4.517289e-24
-3.750000e+00 -9.831261e-23
-3.740000e+00 -2.013320e-22
-3.730000e+00 -3.113074e-22
-3.720000e+00 -4.254446e-22
-3.710000e+00 -5.404514e-22
-3.700000e+00 -6.525873e-22
-3.690000e+00 -7.577320e-22
-3.680000e+00 -8.514772e-22
-3.670000e+00 -9.292385e-22
-3.660000e+00 -9.863870e-22
-3.650000e+00 -1.018400e-21
-3.640000e+00 -1.021021e-21
-3.630000e+00 -9.904408e-22
-3.620000e+00 -9.234686e-22
-3.610000e+00 -8.177229e-22
-3.600000e+00 -6.718028e-22
-3.590000e+00 -4.854537e-22
-3.580000e+00 -2.597140e-22
-3.570000e+00 2.964128e-24
-3.560000e+00 2.986274e-22
-3.550000e+00 6.217713e-22
-3.540000e+00 9.653376e-22
-3.530000e+00 1.320761e-21
-3.520000e+00 1.678071e-21
-3.510000e+00 2.026049e-21
-3.500000e+00 2.352455e-21
-3.490000e+00 2.644293e-21
-3.480000e+00 2.888157e-21
-3.470000e+00 3.070608e-21
-3.460000e+00 3.178601e-21
-3.450000e+00 3.199958e-21
-3.440000e+00 3.123848e-21
-3.430000e+00 2.941294e-21
-3.420000e+00 2.645662e-21
-3.410000e+00 2.233136e-21
-3.400000e+00 1.703156e-21
-3.390000e+00 1.058797e-21
-3.380000e+00 3.070707e-22
-3.370000e+00 -5.408650e-22
-3.360000e+00 -1.469602e-21
-3.350000e+00 -2.459507e-21
-3.340000e+00 -3.486892e-21
-3.330000e+00 -4.524300e-21
-3.320000e+00 -5.540995e-21
-3.310000e+00 -6.503552e-21
-3.300000e+00 -7.376633e-21
-3.290000e+00 -8.123875e-21
-3.280000e+00 -8.708944e-21
-3.270000e+00 -9.096644e-21
-3.260000e+00 -9.254158e-21
-3.250000e+00 -9.152288e-21
-3.240000e+00 -8.766760e-21
-3.230000e+00 -8.079468e-21
-3.220000e+00 -7.079672e-21
-3.210000e+00 -5.765062e-21
-3.200000e+00 -4.142692e-21
-3.190000e+00 -2.229704e-21
-3.180000e+00 -5.379032e-23
-3.170000e+00 2.346604e-21
-3.160000e+00 4.922404e-21
-3.150000e+00 7.614382e-21
-3.140000e+00 1.035399e-20
-3.130000e+00 1.306453e-20
-3.120000e+00 1.566278e-20
-3.110000e+00 1.806085e-20
-3.100000e+00 2.016853e-20
-3.090000e+00 2.189569e-20
-3.080000e+00 2.315522e-20
-3.070000e+00 2.386582e-20
-3.060000e+00 2.395512e-20
-3.050000e+00 2.336272e-20
-3.040000e+00 2.204309e-20
-3.030000e+00 1.996835e-20
-3.020000e+00 1.713077e-20
-3.010000e+00 1.354472e-20
-3.000000e+00 9.248360e-21
-2.990000e+00 4.304502e-21
-2.980000e+00 -1.199072e-21
-2.970000e+00 -7.150093e-21
-2.960000e+00 -1.341306e-20
-2.950000e+00 -1.983141e-20
-2.940000e+00 -2.623037e-20
-2.930000e+00 -3.242080e-20
-2.920000e+00 -3.820381e-20
-2.910000e+00 -4.337583e-20
-2.900000e+00 -4.773467e-20
-2.890000e+00 -5.108567e-20
-2.880000e+00 -5.324846e-20
-2.870000e+00 -5.406361e-20
-2.860000e+00 -5.339927e-20
-2.850000e+00 -5.115767e-20
-2.840000e+00 -4.728084e-20
-2.830000e+00 -4.175567e-20
-2.820000e+00 -3.461816e-20
-2.810000e+00 -2.595612e-20
-2.800000e+00 -1.591083e-20
-2.790000e+00 -4.676875e-21
-2.780000e+00 7.499493e-21
-2.770000e+00 2.032397e-20
-2.760000e+00 3.345950e-20
-2.750000e+00 4.653339e-20
-2.740000e+00 5.914625e-20
-2.730000e+00 7.088228e-20
-2.720000e+00 8.132129e-20
-2.710000e+00 9.005162e-20
-2.700000e+00 9.668370e-20
-2.690000e+00 1.008644e-19
-2.680000e+00 1.022914e-19
-2.670000e+00 1.007261e-19
-2.660000e+00 9.600773e-20
-2.650000e+00 8.806343e-20
-2.640000e+00 7.691846e-20
-2.630000e+00 6.270296e-20
-2.620000e+00 4.565623e-20
-2.610000e+00 2.612788e-20
-2.600000e+00 4.575217e-21
-2.590000e+00 -1.844280e-20
-2.580000e+00 -4.227567e-20
-2.570000e+00 -6.619517e-20
-2.560000e+00 -8.941293e-20
-2.550000e+00 -1.111016e-19
-2.540000e+00 -1.304186e-19
-2.530000e+00 -1.465334e-19
-2.520000e+00 -1.586556e-19
-2.510000e+00 -1.660652e-19
-2.500000e+00 -1.681422e-19
-2.490000e+00 -1.643963e-19
-2.480000e+00 -1.544943e-19
-2.470000e+00 -1.382854e-19
-2.460000e+00 -1.158222e-19
-2.450000e+00 -8.737678e-20
-2.440000e+00 -5.345183e-20
-2.430000e+00 -1.478410e-20
-2.420000e+00 2.765883e-20
-2.410000e+00 7.269001e-20
-2.400000e+00 1.189225e-19
-2.390000e+00 1.647976e-19
-2.380000e+00 2.086208e-19
-2.370000e+00 2.486056e-19
-2.360000e+00 2.829250e-19
-2.350000e+00 3.097683e-19
-2.340000e+00 3.274029e-19
-2.330000e+00 3.342398e-19
-2.320000e+00 3.288998e-19
-2.310000e+00 3.102799e-19
-2.300000e+00 2.776170e-19
-2.290000e+00 2.305462e-19
-2.280000e+00 1.691515e-19
-2.270000e+00 9.400855e-20
-2.260000e+00 6.214209e-21
-2.250000e+00 -9.259720e-20
-2.240000e+00 -2.002528e-19
-2.230000e+00 -3.140576e-19
-2.220000e+00 -4.308282e-19
-2.210000e+00 -5.469457e-19
-2.200000e+00 -6.584273e-19
-2.190000e+00 -7.610160e-19
-2.180000e+00 -8.502867e-19
-2.170000e+00 -9.217684e-19
-2.160000e+00 -9.710796e-19
-2.150000e+00 -9.940748e-19
-2.140000e+00 -9.869916e-19
-2.130000e+00 -9.466114e-19
-2.120000e+00 -8.704099e-19
-2.110000e+00 -7.566998e-19
-2.100000e+00 -6.047718e-19
-2.090000e+00 -4.150072e-19
-2.080000e+00 -1.889782e-19
-2.070000e+00 7.048392e-20
-2.060000e+00 3.592480e-19
-2.050000e+00 6.718787e-19
-2.040000e+00 1.001669e-18
-2.030000e+00 1.340715e-18
-2.020000e+00 1.680028e-18
-2.010000e+00 2.009695e-18
-2.000000e+00 2.319072e-18
-1.990000e+00 2.597026e-18
-1.980000e+00 2.832206e-18
-1.970000e+00 3.013343e-18
-1.960000e+00 3.129581e-18
-1.950000e+00 3.170823e-18
-1.940000e+00 3.128085e-18
-1.930000e+00 2.993850e-18
-1.920000e+00 2.762416e-18
-1.910000e+00 2.430217e-18
-1.900000e+00 1.996124e-18
-1.890000e+00 1.461680e-18
-1.880000e+00 8.313217e-19
-1.870000e+00 1.124974e-19
-1.860000e+00 -6.842571e-19
-1.850000e+00 -1.545333e-18
-1.840000e+00 -2.454149e-18
-1.830000e+00 -3.391331e-18
-1.820000e+00 -4.334991e-18
-1.810000e+00 -5.261101e-18
-1.800000e+00 -6.143937e-18
-1.790000e+00 -6.956617e-18
-1.780000e+00 -7.671716e-18
-1.770000e+00 -8.261937e-18
-1.760000e+00 -8.700841e-18
-1.750000e+00 -8.963591e-18
-1.740000e+00 -9.027743e-18
-1.730000e+00 -8.874009e-18
-1.720000e+00 -8.487018e-18
-1.710000e+00 -7.856011e-18
-1.700000e+00 -6.975499e-18
-1.690000e+00 -5.845799e-18
-1.680000e+00 -4.473493e-18
-1.670000e+00 -2.871735e-18
-1.660000e+00 -1.060436e-18
-1.650000e+00 9.337370e-19
-1.640000e+00 3.077506e-18
-1.630000e+00 5.331329e-18
-1.620000e+00 7.649911e-18
-1.610000e+00 9.982911e-18
-1.600000e+00 1.227583e-17
-1.590000e+00 1.447102e-17
-1.580000e+00 1.650893e-17
-1.570000e+00 1.832936e-17
-1.560000e+00 1.987300e-17
-1.550000e+00 2.108279e-17
-1.540000e+00 2.190558e-17
-1.530000e+00 2.229363e-17
-1.520000e+00 2.220615e-17
-1.510000e+00 2.161071e-17
-1.500000e+00 2.048463e-17
-1.490000e+00 1.881608e-17
-1.480000e+00 1.660517e-17
-1.470000e+00 1.386458e-17
-1.460000e+00 1.062016e-17
-1.450000e+00 6.911082e-18
-1.440000e+00 2.789733e-18
-1.430000e+00 -1.678705e-18
-1.420000e+00 -6.417028e-18
-1.410000e+00 -1.133712e-17
-1.400000e+00 -1.634135e-17
-1.390000e+00 -2.132438e-17
-1.380000e+00 -2.617512e-17
-1.370000e+00 -3.077903e-17
-1.360000e+00 -3.502057e-17
-1.350000e+00 -3.878586e-17
-1.340000e+00 -4.196541e-17
-1.330000e+00 -4.445685e-17
-1.320000e+00 -4.616771e-17
-1.310000e+00 -4.701802e-17
-1.300000e+00 -4.694286e-17
-1.290000e+00 -4.589444e-17
-1.280000e+00 -4.384419e-17
-1.270000e+00 -4.078422e-17
-1.260000e+00 -3.672856e-17
-1.250000e+00 -3.171365e-17
-1.240000e+00 -2.579875e-17
-1.230000e+00 -1.906532e-17
-1.220000e+00 -1.161631e-17
-1.210000e+00 -3.574527e-18
-1.200000e+00 4.919291e-18
-1.190000e+00 1.370902e-17
-1.180000e+00 2.262615e-17
-1.170000e+00 3.149319e-17
-1.160000e+00 4.012744e-17
-1.150000e+00 4.834495e-17
-1.140000e+00 5.596482e-17
-1.130000e+00 6.281332e-17
-1.120000e+00 6.872827e-17
-1.110000e+00 7.356311e-17
-1.100000e+00 7.719061e-17
-1.090000e+00 7.950658e-17
-1.080000e+00 8.043267e-17
-1.070000e+00 7.991892e-17
-1.060000e+00 7.794565e-17
-1.050000e+00 7.452435e-17
-1.040000e+00 6.969819e-17
-1.030000e+00 6.354141e-17
-1.020000e+00 5.615812e-17
-1.010000e+00 4.768002e-17
-1.000000e+00 3.826353e-17
-9.900002e-01 2.808622e-17
-9.800000e-01 1.734235e-17
-9.700003e-01 6.238069e-18
-9.600000e-01 -5.013910e-18
-9.500003e-01 -1.620002e-17
-9.400001e-01 -2.711150e-17
-9.300003e-01 -3.755030e-17
-9.200001e-01 -4.733457e-17
-9.100003e-01 -5.630395e-17
-9.000001e-01 -6.432440e-17
-8.900003e-01 -7.129175e-17
-8.800001e-01 -7.713555e-17
-8.700004e-01 -8.182056e-17
-8.600001e-01 -8.534815e-17
-8.500004e-01 -8.775603e-17
-8.400002e-01 -8.911684e-17
-8.299999e-01 -8.953553e-17
-8.200002e-01 -8.914512e-17
-8.099999e-01 -8.810188e-17
-8.000002e-01 -8.657865e-17
-7.900000e-01 -8.475772e-17
-7.800002e-01 -8.282287e-17
-7.700000e-01 -8.095028e-17
-7.600002e-01 -7.929984e-17
-7.500000e-01 -7.800585e-17
-7.400002e-01 -7.716826e-17
-7.300000e-01 -7.684417e-17
-7.200003e-01 -7.704052e-17
-7.100000e-01 -7.770774e-17
-7.000003e-01 -7.873515e-17
-6.900001e-01 -7.994770e-17
-6.800003e-01 -8.110560e-17
-6.700001e-01 -8.190525e-17
-6.600003e-01 -8.198339e-17
-6.500001e-01 -8.092369e-17
-6.400003e-01 -7.826564e-17
-6.300001e-01 -7.351628e-17
-6.200004e-01 -6.616479e-17
-6.100001e-01 -5.569858e-17
-6.000004e-01 -4.162205e-17
-5.900002e-01 -2.347705e-17
-5.800004e-01 -8.640382e-19
-5.700002e-01 2.653533e-17
-5.599999e-01 5.893601e-17
-5.500002e-01 9.642761e-17
-5.400000e-01 1.389536e-16
-5.300002e-01 1.862926e-16
-5.200000e-01 2.380422e-16
-5.100002e-01 2.936056e-16
-5.000000e-01 3.521840e-16
-4.900002e-01 4.127707e-16
-4.800000e-01 4.741550e-16
-4.700003e-01 5.349258e-16
-4.600000e-01 5.934875e-16
-4.500003e-01 6.480799e-16
-4.400001e-01 6.968023e-16
-4.300003e-01 7.376480e-16
-4.200001e-01 7.685441e-16
-4.100003e-01 7.873948e-16
-4.000001e-01 7.921341e-16
-3.900003e-01 7.807796e-16
-3.800001e-01 7.514921e-16
-3.700004e-01 7.026371e-16
-3.600001e-01 6.328470e-16
-3.500004e-01 5.410849e-16
-3.400002e-01 4.267035e-16
-3.300004e-01 2.895047e-16
-3.200002e-01 1.297902e-16
-3.099999e-01 -5.159164e-17
-3.000002e-01 -2.532092e-16
-2.900000e-01 -4.730201e-16
-2.800002e-01 -7.083568e-16
-2.700000e-01 -9.559236e-16
-2.600002e-01 -1.211807e-15
-2.500000e-01 -1.471506e-15
-2.400002e-01 -1.729973e-15
-2.300000e-01 -1.981674e-15
-2.200003e-01 -2.220662e-15
-2.100000e-01 -2.440670e-15
-2.000003e-01 -2.635218e-15
-1.900001e-01 -2.797731e-15
-1.800003e-01 -2.921677e-15
-1.700001e-01 -3.000705e-15
-1.600003e-01 -3.028799e-15
-1.500001e-01 -3.000437e-15
-1.400003e-01 -2.910746e-15
-1.300001e-01 -2.755668e-15
-1.200004e-01 -2.532112e-15
-1.100001e-01 -2.238098e-15
-1.000004e-01 -1.872896e-15
-9.000015e-02 -1.437149e-15
-8.000040e-02 -9.329715e-16
-7.000017e-02 -3.640271e-16
-5.999994e-02 2.644140e-16
-5.000019e-02 9.454529e-16
-3.999996e-02 1.670568e-15
-3.000021e-02 2.429651e-15
-1.999998e-02 3.211088e-15
-1.000023e-02 4.001863e-15
0.000000e+00 4.787706e-15
1.000023e-02 5.553275e-15
1.999950e-02 6.282376e-15
2.999973e-02 6.958199e-15
3.999996e-02 7.563606e-15
5.000019e-02 8.081433e-15
5.999947e-02 8.494805e-15
6.999969e-02 8.787494e-15
7.999992e-02 8.944265e-15
9.000015e-02 8.951219e-15
9.999943e-02 8.796181e-15
1.099997e-01 8.469028e-15
1.199999e-01 7.962042e-15
1.300001e-01 7.270196e-15
1.399994e-01 6.391462e-15
1.499996e-01 5.327072e-15
1.599998e-01 4.081681e-15
1.700001e-01 2.663565e-15
1.799994e-01 1.084707e-15
1.899996e-01 -6.391566e-16
1.999998e-01 -2.488553e-15
2.100000e-01 -4.440366e-15
2.200003e-01 -6.467977e-15
2.299995e-01 -8.541506e-15
2.399998e-01 -1.062810e-14
2.500000e-01 -1.269229e-14
2.600002e-01 -1.469646e-14
2.699995e-01 -1.660131e-14
2.799997e-01 -1.836638e-14
2.900000e-01 -1.995080e-14
3.000002e-01 -2.131376e-14
3.099995e-01 -2.241535e-14
3.199997e-01 -2.321722e-14
3.299999e-01 -2.368336e-14
3.400002e-01 -2.378083e-14
3.499994e-01 -2.348057e-14
3.599997e-01 -2.275806e-14
3.699999e-01 -2.159411e-14
3.800001e-01 -1.997554e-14
3.899994e-01 -1.789578e-14
3.999996e-01 -1.535543e-14
4.099998e-01 -1.236281e-14
4.200001e-01 -8.934326e-15
4.299994e-01 -5.094783e-15
4.399996e-01 -8.775820e-16
4.499998e-01 3.675190e-15
4.600000e-01 8.512824e-15
4.700003e-01 1.357617e-14
4.799995e-01 1.879801e-14
4.899998e-01 2.410344e-14
5.000000e-01 2.941068e-14
5.100002e-01 3.463168e-14
5.199995e-01 3.967322e-14
5.299997e-01 4.443794e-14
5.400000e-01 4.882563e-14
5.500002e-01 5.273460e-14
5.599995e-01 5.606321e-14
5.699997e-01 5.871157e-14
5.799999e-01 6.058323e-14
5.900002e-01 6.158707e-14
5.999994e-01 6.163927e-14
6.099997e-01 6.066504e-14
6.199999e-01 5.860077e-14
6.300001e-01 5.539601e-14
6.399994e-01 5.101525e-14
6.499996e-01 4.543979e-14
6.599998e-01 3.866940e-14
6.700001e-01 3.072386e-14
6.799994e-01 2.164432e-14
6.899996e-01 1.149434e-14
6.999998e-01 3.607492e-16
7.100000e-01 -1.164595e-14
7.200003e-01 -2.439140e-14
7.299995e-01 -3.771773e-14
7.399998e-01 -5.144428e-14
7.500000e-01 -6.536873e-14
7.600002e-01 -7.926873e-14
7.699995e-01 -9.290426e-14
7.799997e-01 -1.060201e-13
7.900000e-01 -1.183491e-13
8.000002e-01 -1.296158e-13
8.099995e-01 -1.395407e-13
8.199997e-01 -1.478449e-13
8.299999e-01 -1.542547e-13
8.400002e-01 -1.585077e-13
8.499994e-01 -1.603576e-13
8.599997e-01 -1.595808e-13
8.699999e-01 -1.559819e-13
8.800001e-01 -1.493995e-13
8.899994e-01 -1.397125e-13
8.999996e-01 -1.268454e-13
9.099998e-01 -1.107737e-13
9.200001e-01 -9.152853e-14
9.299994e-01 -6.920066e-14
9.399996e-01 -4.394407e-14
9.499998e-01 -1.597829e-14
9.600000e-01 1.441023e-14
9.700003e-01 4.686791e-14
9.799995e-01 8.097495e-14
9.899998e-01 1.162478e-13
1.000000e+00 1.521431e-13
1.010000e+00 1.880626e-13
1.020000e+00 2.233602e-13
1.030000e+00 2.573505e-13
1.040000e+00 2.893176e-13
1.050000e+00 3.185274e-13
1.059999e+00 3.442393e-13
1.070000e+00 3.657196e-13
1.080000e+00 3.822569e-13
1.090000e+00 3.931764e-13
1.099999e+00 3.978563e-13
1.110000e+00 3.957432e-13
1.120000e+00 3.863689e-13
1.130000e+00 3.693652e-13
1.139999e+00 3.444792e-13
1.150000e+00 3.115865e-13
1.160000e+00 2.707044e-13
1.170000e+00 2.220007e-13
1.179999e+00 1.658040e-13
1.190000e+00 1.026075e-13
1.200000e+00 3.307287e-14
1.210000e+00 -4.196989e-14
1.220000e+00 -1.215267e-13
1.230000e+00 -2.044456e-13
1.240000e+00 -2.894288e-13
1.250000e+00 -3.750458e-13
1.260000e+00 -4.597519e-13
1.270000e+00 -5.419109e-13
1.280000e+00 -6.198188e-13
1.290000e+00 -6.917327e-13
1.300000e+00 -7.559022e-13
1.309999e+00 -8.106027e-13
1.320000e+00 -8.541700e-13
1.330000e+00 -8.850386e-13
1.340000e+00 -9.017762e-13
1.349999e+00 -9.031235e-13
1.360000e+00 -8.880295e-13
1.370000e+00 -8.556850e-13
1.380000e+00 -8.055560e-13
1.389999e+00 -7.374124e-13
1.400000e+00 -6.513521e-13
1.410000e+00 -5.478218e-13
1.420000e+00 -4.276301e-13
1.429999e+00 -2.919558e-13
1.440000e+00 -1.423500e-13
1.450000e+00 1.927185e-14
1.460000e+00 1.906428e-13
1.469999e+00 3.691657e-13
1.480000e+00 5.519443e-13
1.490000e+00 7.358196e-13
1.500000e+00 9.174157e-13
1.510000e+00 1.093191e-12
1.520000e+00 1.259501e-12
1.530000e+00 1.412654e-12
1.540000e+00 1.548991e-12
1.550000e+00 1.664952e-12
1.559999e+00 1.757152e-12
1.570000e+00 1.822459e-12
1.580000e+00 1.858071e-12
1.590000e+00 1.861584e-12
1.599999e+00 1.831070e-12
1.610000e+00 1.765136e-12
1.620000e+00 1.662986e-12
1.630000e+00 1.524466e-12
1.639999e+00 1.350109e-12
1.650000e+00 1.141159e-12
1.660000e+00 8.995880e-13
1.670000e+00 6.280980e-13
1.679999e+00 3.301106e-13
1.690000e+00 9.737839e-15
1.700000e+00 -3.282587e-13
1.710000e+00 -6.785261e-13
1.719999e+00 -1.035191e-12
1.730000e+00 -1.391945e-12
1.740000e+00 -1.742147e-12
1.750000e+00 -2.078930e-12
1.760000e+00 -2.395325e-12
1.770000e+00 -2.684389e-12
1.780000e+00 -2.939339e-12
1.790000e+00 -3.153696e-12
1.800000e+00 -3.321417e-12
1.809999e+00 -3.437041e-12
1.820000e+00 -3.495818e-12
1.830000e+00 -3.493836e-12
1.840000e+00 -3.428139e-12
1.849999e+00 -3.296827e-12
1.860000e+00 -3.099142e-12
1.870000e+00 -2.835540e-12
1.880000e+00 -2.507737e-12
1.889999e+00 -2.118732e-12
1.900000e+00 -1.672813e-12
1.910000e+00 -1.175531e-12
1.920000e+00 -6.336494e-13
1.929999e+00 -5.506996e-14
1.940000e+00 5.512667e-13
1.950000e+00 1.175509e-12
1.960000e+00 1.807042e-12
1.969999e+00 2.434654e-12
1.980000e+00 3.046731e-12
1.990000e+00 3.631453e-12
2.000000e+00 4.177019e-12
2.010000e+00 4.671860e-12
2.020000e+00 5.104877e-12
2.030000e+00 5.465673e-12
2.040000e+00 5.744760e-12
2.050000e+00 5.933788e-12
2.059999e+00 6.025748e-12
2.070000e+00 6.015140e-12
2.080000e+00 5.898142e-12
2.090000e+00 5.672749e-12
2.099999e+00 5.338854e-12
2.110000e+00 4.898340e-12
2.120000e+00 4.355103e-12
2.130000e+00 3.715041e-12
2.139999e+00 2.986022e-12
2.150000e+00 2.177796e-12
2.160000e+00 1.301866e-12
2.170000e+00 3.713377e-13
2.179999e+00 -5.992804e-13
2.190000e+00 -1.594307e-12
2.200000e+00 -2.597146e-12
2.210000e+00 -3.590566e-12
2.219999e+00 -4.557008e-12
2.230000e+00 -5.478906e-12
2.240000e+00 -6.339003e-12
2.250000e+00 -7.120690e-12
2.260000e+00 -7.808323e-12
2.270000e+00 -8.387557e-12
2.280000e+00 -8.845597e-12
2.290000e+00 -9.171526e-12
2.300000e+00 -9.356513e-12
2.309999e+00 -9.394026e-12
2.320000e+00 -9.279992e-12
2.330000e+00 -9.012934e-12
2.340000e+00 -8.594034e-12
2.349999e+00 -8.027160e-12
2.360000e+00 -7.318823e-12
2.370000e+00 -6.478107e-12
2.380000e+00 -5.516533e-12
2.389999e+00 -4.447864e-12
2.400000e+00 -3.287881e-12
2.410000e+00 -2.054103e-12
2.420000e+00 -7.654767e-13
2.429999e+00 5.579694e-13
2.440000e+00 1.895502e-12
2.450000e+00 3.226063e-12
2.460000e+00 4.528673e-12
2.469999e+00 5.782835e-12
2.480000e+00 6.968913e-12
2.490000e+00 8.068524e-12
2.500000e+00 9.064882e-12
2.510000e+00 9.943102e-12
2.520000e+00 1.069051e-11
2.530000e+00 1.129685e-11
2.540000e+00 1.175447e-11
2.550000e+00 1.205844e-11
2.559999e+00 1.220661e-11
2.570000e+00 1.219964e-11
2.580000e+00 1.204086e-11
2.590000e+00 1.173622e-11
2.599999e+00 1.129406e-11
2.610000e+00 1.072486e-11
2.620000e+00 1.004096e-11
2.630000e+00 9.256190e-12
2.639999e+00 8.385518e-12
2.650000e+00 7.444633e-12
2.660000e+00 6.449492e-12
2.670000e+00 5.415920e-12
2.679999e+00 4.359158e-12
2.690000e+00 3.293455e-12
2.700000e+00 2.231668e-12
2.710000e+00 1.184916e-12
2.719999e+00 1.622717e-13
2.730000e+00 -8.294901e-13
2.740000e+00 -1.786076e-12
2.750000e+00 -2.705780e-12
2.760000e+00 -3.589516e-12
2.770000e+00 -4.440775e-12
2.780000e+00 -5.265482e-12
2.790000e+00 -6.071770e-12
2.800000e+00 -6.869692e-12
2.809999e+00 -7.670827e-12
2.820000e+00 -8.487829e-12
2.830000e+00 -9.333923e-12
2.840000e+00 -1.022230e-11
2.849999e+00 -1.116555e-11
2.860000e+00 -1.217498e-11
2.870000e+00 -1.325998e-11
2.880000e+00 -1.442739e-11
2.889999e+00 -1.568083e-11
2.900000e+00 -1.702012e-11
2.910000e+00 -1.844078e-11
2.920000e+00 -1.993351e-11
2.929999e+00 -2.148382e-11
2.940000e+00 -2.307179e-11
2.950000e+00 -2.467182e-11
2.960000e+00 -2.625272e-11
2.969999e+00 -2.777769e-11
2.980000e+00 -2.920462e-11
2.990000e+00 -3.048651e-11