-8.000000e+00 0.000000e+00
-7.950000e+00 0.000000e+00
-7.900000e+00 0.000000e+00
-7.850000e+00 0.000000e+00
-7.800000e+00 0.000000e+00
-7.750000e+00 0.000000e+00
-7.700000e+00 0.000000e+00
-7.650000e+00 0.000000e+00
-7.600000e+00 0.000000e+00
-7.550000e+00 5.190828e-38
-7.500000e+00 -2.950658e-32
-7.450000e+00 -1.194465e-30
-7.400000e+00 -1.648441e-29
-7.350000e+00 -1.339205e-28
-7.300000e+00 -7.475731e-28
-7.250000e+00 -3.036358e-27
-7.200000e+00 -9.087233e-27
-7.150000e+00 -1.936572e-26
-7.100000e+00 -2.482958e-26
-7.050000e+00 1.596303e-27
-7.000000e+00 9.212535e-26
-6.950000e+00 2.235490e-25
-6.900000e+00 2.387262e-25
-6.850000e+00 -1.087007e-25
-6.800000e+00 -8.393150e-25
-6.750000e+00 -1.340052e-24
-6.700000e+00 -5.422571e-25
-6.650000e+00 1.802339e-24
-6.600000e+00 3.773392e-24
-6.550000e+00 2.451520e-24
-6.500000e+00 -1.728511e-24
-6.450000e+00 -3.003393e-24
-6.400000e+00 1.336449e-24
-6.350000e+00 -2.419893e-24
-6.300000e+00 -3.491006e-23
-6.250000e+00 -7.180023e-23
-6.200000e+00 -2.710742e-24
-6.150000e+00 2.697286e-22
-6.100000e+00 5.539140e-22
-6.050000e+00 2.201626e-22
-6.000000e+00 -1.259351e-21
-5.950000e+00 -3.019923e-21
-5.900000e+00 -2.124548e-21
-5.850000e+00 4.211773e-21
-5.800000e+00 1.324992e-20
-5.750000e+00 1.336510e-20
-5.700000e+00 -8.588384e-21
-5.650000e+00 -4.737856e-20
-5.600000e+00 -6.385764e-20
-5.550000e+00 -4.310201e-21
-5.500000e+00 1.343125e-19
-5.450000e+00 2.412778e-19
-5.400000e+00 1.286385e-19
-5.350000e+00 -2.805681e-19
-5.300000e+00 -7.299531e-19
-5.250000e+00 -6.563675e-19
-5.200000e+00 3.336758e-19
-5.150000e+00 1.779898e-18
-5.100000e+00 2.223410e-18
-5.050000e+00 2.658225e-19
-5.000000e+00 -3.561514e-18
-4.950000e+00 -5.921046e-18
-4.900000e+00 -2.735829e-18
-4.850000e+00 6.166764e-18
-4.800000e+00 1.384436e-17
-4.750000e+00 9.687177e-18
-4.700000e+00 -9.865559e-18
-4.650000e+00 -3.154069e-17
-4.600000e+00 -2.939946e-17
-4.550000e+00 1.210966e-17
-4.500000e+00 7.120837e-17
-4.450000e+00 8.820550e-17
-4.400000e+00 1.032486e-17
-4.350000e+00 -1.405615e-16
-4.300000e+00 -2.416921e-16
-4.250000e+00 -1.421593e-16
-4.200000e+00 1.854693e-16
-4.150000e+00 5.361901e-16
-4.100000e+00 5.520446e-16
-4.050000e+00 1.243503e-17
-4.000000e+00 -8.576949e-16
-3.950000e+00 -1.376274e-15
-3.900000e+00 -8.532273e-16
-3.850000e+00 7.310550e-16
-3.800000e+00 2.391216e-15
-3.750000e+00 2.630826e-15
-3.700000e+00 6.350235e-16
-3.650000e+00 -2.702815e-15
-3.600000e+00 -4.955470e-15
-3.550000e+00 -3.801568e-15
-3.500000e+00 8.926889e-16
-3.450000e+00 6.301746e-15
-3.400000e+00 8.232880e-15
-3.350000e+00 4.272129e-15
-3.300000e+00 -3.898317e-15
-3.250000e+00 -1.112693e-14
-3.200000e+00 -1.223946e-14
-3.150000e+00 -5.714361e-15
-3.100000e+00 5.379009e-15
-3.050000e+00 1.576063e-14
-3.000000e+00 2.111112e-14
-2.950000e+00 1.889164e-14
-2.900000e+00 6.736104e-15
-2.850000e+00 -1.769148e-14
-2.800000e+00 -5.151177e-14
-2.750000e+00 -7.840950e-14
-2.700000e+00 -6.756429e-14
-2.650000e+00 9.471749e-15
-2.600000e+00 1.457207e-13
-2.550000e+00 2.717783e-13
-2.500000e+00 2.685915e-13
-2.450000e+00 3.862694e-14
-2.400000e+00 -3.895053e-13
-2.350000e+00 -7.961125e-13
-2.300000e+00 -8.299484e-13
-2.250000e+00 -2.203802e-13
-2.200000e+00 9.446294e-13
-2.150000e+00 2.070049e-12
-2.100000e+00 2.236646e-12
-2.050000e+00 7.578830e-13
-2.000000e+00 -2.132525e-12
-1.950000e+00 -4.952022e-12
-1.900000e+00 -5.467593e-12
-1.850000e+00 -2.067914e-12
-1.800000e+00 4.634116e-12
-1.750000e+00 1.114130e-11
-1.700000e+00 1.236927e-11
-1.650000e+00 4.843155e-12
-1.600000e+00 -9.827028e-12
-1.550000e+00 -2.381768e-11
-1.500000e+00 -2.628863e-11
-1.450000e+00 -1.034554e-11
-1.400000e+00 2.001446e-11
-1.350000e+00 4.835935e-11
-1.300000e+00 5.308493e-11
-1.250000e+00 2.144265e-11
-1.200000e+00 -3.768108e-11
-1.150000e+00 -9.227736e-11
-1.100000e+00 -1.021513e-10
-1.050000e+00 -4.492059e-11
-1.000000e+00 6.223870e-11
-9.499998e-01 1.621491e-10
-9.000001e-01 1.852520e-10
-8.499999e-01 9.382780e-11
-7.999997e-01 -8.364266e-11
-7.500000e-01 -2.544530e-10
-6.999998e-01 -3.076576e-10
-6.500001e-01 -1.830184e-10
-5.999999e-01 7.871968e-11
-5.499997e-01 3.419975e-10
-5.000000e-01 4.461124e-10
-4.499998e-01 3.038558e-10
-4.000001e-01 -3.121010e-11
-3.499999e-01 -3.785511e-10
-2.999997e-01 -5.291605e-10
-2.500000e-01 -3.763383e-10
-1.999998e-01 3.149923e-12
-1.500001e-01 3.782553e-10
-9.999990e-02 4.988056e-10
-4.999971e-02 2.609232e-10
0.000000e+00 -2.034308e-10
5.000019e-02 -5.824163e-10
1.000004e-01 -5.677965e-10
1.500006e-01 -6.163173e-11
1.999998e-01 7.253528e-10
2.500000e-01 1.358667e-09
3.000002e-01 1.411989e-09
3.500004e-01 7.131646e-10
4.000006e-01 -5.451828e-10
4.499998e-01 -1.899235e-09
5.000000e-01 -2.851124e-09
5.500002e-01 -3.096293e-09
6.000004e-01 -2.597829e-09
6.500006e-01 -1.475374e-09
6.999998e-01 1.860324e-10
7.500000e-01 2.435564e-09
8.000002e-01 5.351924e-09
8.500004e-01 8.772010e-09
9.000006e-01 1.202973e-08
9.499998e-01 1.390768e-08
1.000000e+00 1.288919e-08
1.050000e+00 7.613732e-09
1.100000e+00 -2.693823e-09
1.150001e+00 -1.803942e-08
1.200000e+00 -3.779859e-08
1.250000e+00 -6.107776e-08
1.300000e+00 -8.710278e-08
1.350000e+00 -1.154753e-07
1.400001e+00 -1.462547e-07
1.450000e+00 -1.799247e-07
1.500000e+00 -2.173160e-07
1.550000e+00 -2.595035e-07
1.600000e+00 -3.076537e-07
1.650001e+00 -3.628350e-07
1.700000e+00 -4.258995e-07
1.750000e+00 -4.975972e-07
1.800000e+00 -5.789938e-07
1.850000e+00 -6.720482e-07
1.900001e+00 -7.799854e-07
1.950000e+00 -9.070947e-07
2.000000e+00 -1.057845e-06
2.050000e+00 -1.235666e-06
2.100000e+00 -1.442099e-06
2.150001e+00 -1.676992e-06
2.200000e+00 -1.939943e-06
2.250000e+00 -2.232475e-06
2.300000e+00 -2.559870e-06
2.350000e+00 -2.931614e-06
2.400001e+00 -3.360029e-06
2.450000e+00 -3.857646e-06
2.500000e+00 -4.434662e-06
2.550000e+00 -5.097811e-06
2.600000e+00 -5.851401e-06
2.650001e+00 -6.699956e-06
2.700000e+00 -7.651154e-06
2.750000e+00 -8.717489e-06
2.800000e+00 -9.915944e-06
2.850000e+00 -1.126609e-05
2.900001e+00 -1.278799e-05
2.950000e+00 -1.450117e-05
3.000000e+00 -1.642534e-05
3.050000e+00 -1.858214e-05
3.100000e+00 -2.099657e-05
3.150001e+00 -2.369716e-05
3.200000e+00 -2.671470e-05
3.250000e+00 -3.008066e-05
3.300000e+00 -3.382651e-05
3.350000e+00 -3.798498e-05
3.400001e+00 -4.259246e-05
3.450000e+00 -4.769149e-05
3.500000e+00 -5.333156e-05
3.550000e+00 -5.956782e-05
3.600000e+00 -6.645825e-05
3.650001e+00 -7.406116e-05
3.700000e+00 -8.243378e-05
3.750000e+00 -9.163340e-05
3.800000e+00 -1.017200e-04
3.850000e+00 -1.127590e-04
3.900001e+00 -1.248231e-04
3.950000e+00 -1.379928e-04
4.000000e+00 -1.523548e-04
4.050000e+00 -1.679989e-04
4.100000e+00 -1.850163e-04
4.150001e+00 -2.034971e-04
4.200000e+00 -2.235308e-04
4.250000e+00 -2.452071e-04
4.300000e+00 -2.686184e-04
4.350000e+00 -2.938622e-04
4.400001e+00 -3.210405e-04
4.450000e+00 -3.502589e-04
4.500000e+00 -3.816237e-04
4.550000e+00 -4.152395e-04
4.600000e+00 -4.512064e-04
4.650001e+00 -4.896202e-04
4.700000e+00 -5.305723e-04
4.750000e+00 -5.741499e-04
4.800000e+00 -6.204369e-04
4.850000e+00 -6.695120e-04
4.900001e+00 -7.214489e-04
4.950000e+00 -7.763138e-04
5.000000e+00 -8.341630e-04
5.050000e+00 -8.950419e-04
5.100000e+00 -9.589817e-04
5.150001e+00 -1.025999e-03
5.200000e+00 -1.096094e-03
5.250000e+00 -1.169251e-03
5.300000e+00 -1.245441e-03
5.350000e+00 -1.324613e-03
5.400001e+00 -1.406697e-03
5.450000e+00 -1.491601e-03
5.500000e+00 -1.579205e-03
5.550000e+00 -1.669365e-03
5.600000e+00 -1.761912e-03
5.650001e+00 -1.856654e-03
5.700000e+00 -1.953371e-03
5.750000e+00 -2.051815e-03
5.800000e+00 -2.151706e-03
5.850000e+00 -2.252730e-03
5.900001e+00 -2.354548e-03
5.950000e+00 -2.456791e-03
6.000000e+00 -2.559061e-03
6.050000e+00 -2.660936e-03
6.100000e+00 -2.761962e-03
6.150001e+00 -2.861654e-03
6.200000e+00 -2.959501e-03
6.250000e+00 -3.054970e-03
6.300000e+00 -3.147503e-03
6.350000e+00 -3.236531e-03
6.400001e+00 -3.321461e-03
6.450000e+00 -3.401684e-03
6.500000e+00 -3.476580e-03
6.550000e+00 -3.545516e-03
6.600000e+00 -3.607857e-03
6.650001e+00 -3.662975e-03
6.700000e+00 -3.710239e-03
6.750000e+00 -3.749025e-03
6.800000e+00 -3.778722e-03
6.850000e+00 -3.798732e-03
6.900001e+00 -3.808481e-03
6.950000e+00 -3.807423e-03
7.000000e+00 -3.795049e-03
7.050000e+00 -3.770880e-03
7.100000e+00 -3.734480e-03
7.150001e+00 -3.685460e-03
7.200000e+00 -3.623478e-03
7.250000e+00 -3.548257e-03
7.300000e+00 -3.459579e-03
7.350000e+00 -3.357293e-03
7.400001e+00 -3.241305e-03
7.450000e+00 -3.111596e-03
7.500000e+00 -2.968220e-03
7.550000e+00 -2.811313e-03
7.600000e+00 -2.641092e-03
7.650001e+00 -2.457856e-03
7.700000e+00 -2.261982e-03
7.750000e+00 -2.053925e-03
7.800000e+00 -1.834218e-03
7.850000e+00 -1.603478e-03
7.900001e+00 -1.362403e-03
7.950000e+00 -1.111771e-03
8.000000e+00 -8.524304e-04
8.050001e+00 -5.852976e-04
8.100000e+00 -3.113506e-04
8.150000e+00 -3.162838e-05
8.200001e+00 2.527727e-04
8.250000e+00 5.407050e-04
8.300001e+00 8.309779e-04
8.350000e+00 1.122368e-03
8.400000e+00 1.413625e-03
8.450001e+00 1.703481e-03
8.500000e+00 1.990654e-03
8.550001e+00 2.273852e-03
8.600000e+00 2.551792e-03
8.650000e+00 2.823203e-03
8.700001e+00 3.086845e-03
8.750000e+00 3.341509e-03
8.800001e+00 3.586019e-03
8.850000e+00 3.819252e-03
8.900000e+00 4.040127e-03
8.950001e+00 4.247634e-03
9.000000e+00 4.440831e-03
9.050001e+00 4.618852e-03
9.100000e+00 4.780917e-03
9.150000e+00 4.926332e-03
9.200001e+00 5.054490e-03
9.250000e+00 5.164879e-03
9.300001e+00 5.257094e-03
9.350000e+00 5.330830e-03
9.400000e+00 5.385891e-03
9.450001e+00 5.422179e-03
9.500000e+00 5.439702e-03
9.550001e+00 5.438567e-03
9.600000e+00 5.418987e-03
9.650000e+00 5.381278e-03
9.700001e+00 5.325852e-03
9.750000e+00 5.253220e-03
9.800001e+00 5.163974e-03
9.850000e+00 5.058794e-03
9.900000e+00 4.938437e-03
9.950001e+00 4.803730e-03
1.000000e+01 4.655574e-03
1.005000e+01 4.494925e-03
1.010000e+01 4.322791e-03
1.015000e+01 4.140223e-03
1.020000e+01 3.948306e-03
1.025000e+01 3.748157e-03
1.030000e+01 3.540918e-03
1.035000e+01 3.327741e-03
1.040000e+01 3.109785e-03
1.045000e+01 2.888206e-03
1.050000e+01 2.664147e-03
1.055000e+01 2.438737e-03
1.060000e+01 2.213082e-03
1.065000e+01 1.988260e-03
1.070000e+01 1.765316e-03
1.075000e+01 1.545254e-03
1.080000e+01 1.329036e-03
1.085000e+01 1.117573e-03
1.090000e+01 9.117302e-04
1.095000e+01 7.123136e-04
1.100000e+01 5.200733e-04
1.105000e+01 3.356992e-04
1.110000e+01 1.598219e-04
1.115000e+01 -6.987182e-06
1.120000e+01 -1.642152e-04
1.125000e+01 -3.114080e-04
1.130000e+01 -4.481719e-04
1.135000e+01 -5.741713e-04
1.140000e+01 -6.891270e-04
1.145000e+01 -7.928115e-04
1.150000e+01 -8.850448e-04
1.155000e+01 -9.656935e-04
1.160000e+01 -1.034668e-03
1.165000e+01 -1.091919e-03
1.170000e+01 -1.137439e-03
1.175000e+01 -1.171250e-03
1.180000e+01 -1.193403e-03
1.185000e+01 -1.203967e-03
1.190000e+01 -1.203038e-03
1.195000e+01 -1.190726e-03
1.200000e+01 -1.167158e-03
1.205000e+01 -1.132471e-03
1.210000e+01 -1.086811e-03
1.215000e+01 -1.030325e-03
1.220000e+01 -9.631578e-04
1.225000e+01 -8.854549e-04
1.230000e+01 -7.973564e-04
1.235000e+01 -6.989963e-04
1.240000e+01 -5.904995e-04
1.245000e+01 -4.719814e-04
1.250000e+01 -3.435478e-04
1.255000e+01 -2.052975e-04
1.260000e+01 -5.732342e-05
1.265000e+01 1.002880e-04
1.270000e+01 2.674563e-04
1.275000e+01 4.441073e-04
1.280000e+01 6.301680e-04
1.285000e+01 8.255660e-04
1.290000e+01 1.030223e-03
1.295000e+01 1.244050e-03
1.300000e+01 1.466951e-03
1.305000e+01 1.698810e-03
1.310000e+01 1.939499e-03
1.315000e+01 2.188859e-03
1.320000e+01 2.446705e-03
1.325000e+01 2.712815e-03
1.330000e+01 2.986927e-03
1.335000e+01 3.268740e-03
1.340000e+01 3.557898e-03
1.345000e+01 3.853992e-03
1.350000e+01 4.156554e-03
1.355000e+01 4.465052e-03
1.360000e+01 4.778884e-03
1.365000e+01 5.097372e-03
1.370000e+01 5.419766e-03
1.375000e+01 5.745231e-03
1.380000e+01 6.072843e-03
1.385000e+01 6.401595e-03
1.390000e+01 6.730390e-03
1.395000e+01 7.058049e-03
1.400000e+01 7.383300e-03
1.405000e+01 7.704787e-03
1.410000e+01 8.021068e-03
1.415000e+01 8.330612e-03
1.420000e+01 8.631808e-03
1.425000e+01 8.922973e-03
1.430000e+01 9.202358e-03
1.435000e+01 9.468155e-03
1.440000e+01 9.718493e-03
1.445000e+01 9.951456e-03
1.450000e+01 1.016510e-02
1.455000e+01 1.035743e-02
1.460000e+01 1.052650e-02
1.465000e+01 1.067029e-02
1.470000e+01 1.078685e-02
1.475000e+01 1.087424e-02
1.480000e+01 1.093054e-02
1.485000e+01 1.095391e-02
1.490000e+01 1.094259e-02
1.495000e+01 1.089490e-02
1.500000e+01 1.080928e-02
1.505000e+01 1.068428e-02
1.510000e+01 1.051858e-02
1.515000e+01 1.031105e-02
1.520000e+01 1.006069e-02
1.525000e+01 9.766734e-03
1.530000e+01 9.428589e-03
1.535000e+01 9.045878e-03
1.540000e+01 8.618467e-03
1.545000e+01 8.146445e-03
1.550000e+01 7.630160e-03
1.555000e+01 7.070211e-03
1.560000e+01 6.467467e-03
1.565000e+01 5.823061e-03
1.570000e+01 5.138400e-03
1.575000e+01 4.415157e-03
1.580000e+01 3.655276e-03
1.585000e+01 2.860966e-03
1.590000e+01 2.034700e-03
1.595000e+01 1.179204e-03
1.600000e+01 2.974432e-04
1.605000e+01 -6.073865e-04
1.610000e+01 -1.531879e-03
1.615000e+01 -2.472432e-03
1.620000e+01 -3.425266e-03
1.625000e+01 -4.386440e-03
1.630000e+01 -5.351879e-03
1.635000e+01 -6.317388e-03
1.640000e+01 -7.278699e-03
1.645000e+01 -8.231481e-03
1.650000e+01 -9.171370e-03
1.655000e+01 -1.009402e-02
1.660000e+01 -1.099508e-02
1.665000e+01 -1.187027e-02
1.670000e+01 -1.271539e-02
1.675000e+01 -1.352636e-02
1.680000e+01 -1.429925e-02
1.685000e+01 -1.503030e-02
1.690000e+01 -1.571592e-02
1.695000e+01 -1.635278e-02
1.700000e+01 -1.693779e-02
1.705000e+01 -1.746810e-02
1.710000e+01 -1.794120e-02
1.715000e+01 -1.835485e-02
1.720000e+01 -1.870715e-02
1.725000e+01 -1.899653e-02
1.730000e+01 -1.922176e-02
1.735000e+01 -1.938199e-02
1.740000e+01 -1.947670e-02
1.745000e+01 -1.950578e-02
1.750000e+01 -1.946945e-02
1.755000e+01 -1.936830e-02
1.760000e+01 -1.920327e-02
1.765000e+01 -1.897566e-02
1.770000e+01 -1.868708e-02
1.775000e+01 -1.833949e-02
1.780000e+01 -1.793513e-02
1.785000e+01 -1.747655e-02
1.790000e+01 -1.696655e-02
1.795000e+01 -1.640819e-02
1.800000e+01 -1.580473e-02
1.805000e+01 -1.515965e-02
1.810000e+01 -1.447659e-02
1.815000e+01 -1.375932e-02
1.820000e+01 -1.301174e-02
1.825000e+01 -1.223785e-02
1.830000e+01 -1.144169e-02
1.835000e+01 -1.062733e-02
1.840000e+01 -9.798836e-03
1.845000e+01 -8.960268e-03
1.850000e+01 -8.115630e-03
1.855000e+01 -7.268843e-03
1.860000e+01 -6.423740e-03
1.865000e+01 -5.584031e-03
1.870000e+01 -4.753284e-03
1.875000e+01 -3.934896e-03
1.880000e+01 -3.132095e-03
1.885000e+01 -2.347906e-03
1.890000e+01 -1.585153e-03
1.895000e+01 -8.464408e-04
1.900000e+01 -1.341477e-04
1.905000e+01 5.495846e-04
1.910000e+01 1.202856e-03
1.915000e+01 1.824015e-03
1.920000e+01 2.411652e-03
1.925000e+01 2.964602e-03
1.930000e+01 3.481939e-03
1.935000e+01 3.962972e-03
1.940000e+01 4.407243e-03
1.945000e+01 4.814515e-03
1.950000e+01 5.184776e-03
1.955000e+01 5.518212e-03
1.960000e+01 5.815207e-03
1.965000e+01 6.076320e-03
1.970000e+01 6.302280e-03
1.975000e+01 6.493970e-03
1.980000e+01 6.652412e-03
1.985000e+01 6.778766e-03
1.990000e+01 6.874296e-03
1.995000e+01 6.940367e-03
2.000000e+01 6.978425e-03
2.005000e+01 6.989979e-03
2.010000e+01 6.976597e-03
2.015000e+01 6.939892e-03
2.020000e+01 6.881505e-03
2.025000e+01 6.803091e-03
2.030000e+01 6.706307e-03
2.035000e+01 6.592800e-03
2.040000e+01 6.464201e-03
2.045000e+01 6.322120e-03
2.050000e+01 6.168127e-03
2.055000e+01 6.003750e-03
2.060000e+01 5.830465e-03
2.065000e+01 5.649686e-03
2.070000e+01 5.462774e-03
2.075000e+01 5.271020e-03
2.080000e+01 5.075649e-03
2.085000e+01 4.877816e-03
2.090000e+01 4.678594e-03
2.095000e+01 4.478977e-03
2.100000e+01 4.279885e-03
2.105000e+01 4.082165e-03
2.110000e+01 3.886587e-03
2.115000e+01 3.693850e-03
2.120000e+01 3.504577e-03
2.125000e+01 3.319321e-03
2.130000e+01 3.138559e-03
2.135000e+01 2.962707e-03
2.140000e+01 2.792118e-03
2.145000e+01 2.627086e-03
2.150000e+01 2.467848e-03
2.155000e+01 2.314590e-03
2.160000e+01 2.167445e-03
2.165000e+01 2.026503e-03
2.170000e+01 1.891813e-03
2.175000e+01 1.763385e-03
2.180000e+01 1.641190e-03
2.185000e+01 1.525169e-03
2.190000e+01 1.415234e-03
2.195000e+01 1.311273e-03
2.200000e+01 1.213157e-03
2.205000e+01 1.120741e-03
2.210000e+01 1.033861e-03
2.215000e+01 9.523378e-04
2.220000e+01 8.759778e-04
2.225000e+01 8.045794e-04
2.230000e+01 7.379375e-04
2.235000e+01 6.758466e-04
2.240000e+01 6.181006e-04
2.245000e+01 5.644906e-04
2.250000e+01 5.148044e-04
2.255000e+01 4.688292e-04
2.260000e+01 4.263553e-04
2.265000e+01 3.871800e-04
2.270000e+01 3.511099e-04
2.275000e+01 3.179584e-04
2.280000e+01 2.875431e-04
2.285000e+01 2.596847e-04
2.290000e+01 2.342080e-04
2.295000e+01 2.109448e-04
2.300000e+01 1.897377e-04
2.305000e+01 1.704390e-04
2.310000e+01 1.529094e-04
2.315000e+01 1.370149e-04
2.320000e+01 1.226259e-04
2.325000e+01 1.096186e-04
2.330000e+01 9.787834e-05
2.335000e+01 8.730083e-05
2.340000e+01 7.779086e-05
2.345000e+01 6.925889e-05
2.350000e+01 6.161821e-05
2.355000e+01 5.478484e-05
2.360000e+01 4.867991e-05
2.365000e+01 4.323257e-05
2.370000e+01 3.838057e-05
2.375000e+01 3.406819e-05
2.380000e+01 3.024283e-05
2.385000e+01 2.685299e-05
2.390000e+01 2.384900e-05
2.395000e+01 2.118569e-05
2.400000e+01 1.882470e-05
2.405000e+01 1.673442e-05
2.410000e+01 1.488757e-05
2.415000e+01 1.325801e-05
2.420000e+01 1.181906e-05
2.425000e+01 1.054412e-05
2.430000e+01 9.408939e-06
2.435000e+01 8.393733e-06
2.440000e+01 7.483726e-06
2.445000e+01 6.667832e-06
2.450000e+01 5.936240e-06
2.455000e+01 5.278323e-06
2.460000e+01 4.682012e-06
2.465000e+01 4.134998e-06
2.470000e+01 3.627078e-06
2.475000e+01 3.152229e-06
2.480000e+01 2.708912e-06
2.485000e+01 2.298086e-06
2.490000e+01 1.919914e-06
2.495000e+01 1.571238e-06
2.500000e+01 1.245664e-06
2.505000e+01 9.363786e-07
2.510000e+01 6.398276e-07
2.515000e+01 3.575224e-07
2.520000e+01 9.452511e-08
2.525000e+01 -1.444040e-07
2.530000e+01 -3.581726e-07
2.535000e+01 -5.497461e-07
2.540000e+01 -7.233625e-07
2.545000e+01 -8.808400e-07
2.550000e+01 -1.019901e-06
2.555000e+01 -1.135774e-06
2.560000e+01 -1.224690e-06
2.565000e+01 -1.286496e-06
2.570000e+01 -1.324431e-06
2.575000e+01 -1.342518e-06
2.580000e+01 -1.342852e-06
2.585000e+01 -1.324971e-06
2.590000e+01 -1.287566e-06
2.595000e+01 -1.230840e-06
2.600000e+01 -1.157385e-06
2.605000e+01 -1.070825e-06
2.610000e+01 -9.735090e-07
2.615000e+01 -8.652804e-07
2.620000e+01 -7.444865e-07
2.625000e+01 -6.104318e-07
2.630000e+01 -4.652699e-07
2.635000e+01 -3.137471e-07
2.640000e+01 -1.609633e-07
2.645000e+01 -9.927544e-09
2.650000e+01 1.391280e-07
2.655000e+01 2.871233e-07
2.660000e+01 4.335219e-07
2.665000e+01 5.749195e-07
2.670000e+01 7.061205e-07
2.675000e+01 8.230156e-07
2.680000e+01 9.250398e-07
2.685000e+01 1.015150e-06
2.690000e+01 1.097078e-06
2.695000e+01 1.171755e-06
2.700000e+01 1.235587e-06
2.705000e+01 1.282043e-06
2.710000e+01 1.305561e-06
2.715000e+01 1.305025e-06
2.720000e+01 1.284290e-06
2.725000e+01 1.249375e-06
2.730000e+01 1.204378e-06
2.735000e+01 1.149049e-06
2.740000e+01 1.079641e-06
2.745000e+01 9.922197e-07
2.750000e+01 8.858839e-07
2.755000e+01 7.636181e-07
2.760000e+01 6.304227e-07
2.765000e+01 4.903337e-07
2.770000e+01 3.445334e-07
2.775000e+01 1.916654e-07
2.780000e+01 2.974315e-08
2.785000e+01 -1.419301e-07
2.790000e+01 -3.220831e-07
2.795000e+01 -5.081503e-07
2.800000e+01 -6.975056e-07
2.805000e+01 -8.883713e-07
2.810000e+01 -1.080075e-06
2.815000e+01 -1.272849e-06
2.820000e+01 -1.467481e-06
2.825000e+01 -1.664935e-06
2.830000e+01 -1.865923e-06
2.835000e+01 -2.070587e-06
2.840000e+01 -2.278564e-06
2.845000e+01 -2.489621e-06
2.850000e+01 -2.704598e-06
2.855000e+01 -2.926035e-06
2.860000e+01 -3.157963e-06
2.865000e+01 -3.404871e-06
2.870000e+01 -3.670453e-06
2.875000e+01 -3.956966e-06
2.880000e+01 -4.265598e-06
2.885000e+01 -4.597671e-06
2.890000e+01 -4.955999e-06
2.895000e+01 -5.345709e-06
2.900000e+01 -5.774144e-06
2.905000e+01 -6.249846e-06
2.910000e+01 -6.781151e-06
2.915000e+01 -7.374987e-06
2.920000e+01 -8.036609e-06
2.925000e+01 -8.770450e-06
2.930000e+01 -9.581752e-06
2.935000e+01 -1.047794e-05
2.940000e+01 -1.146877e-05
2.945000e+01 -1.256510e-05
