-8.000000e+00 0.000000e+00
-7.990000e+00 0.000000e+00
-7.980000e+00 0.000000e+00
-7.970000e+00 0.000000e+00
-7.960000e+00 0.000000e+00
-7.950000e+00 0.000000e+00
-7.940000e+00 0.000000e+00
-7.930000e+00 0.000000e+00
-7.920000e+00 0.000000e+00
-7.910000e+00 0.000000e+00
-7.900000e+00 0.000000e+00
-7.890000e+00 0.000000e+00
-7.880000e+00 0.000000e+00
-7.870000e+00 0.000000e+00
-7.860000e+00 0.000000e+00
-7.850000e+00 0.000000e+00
-7.840000e+00 0.000000e+00
-7.830000e+00 0.000000e+00
-7.820000e+00 0.000000e+00
-7.810000e+00 0.000000e+00
-7.800000e+00 0.000000e+00
-7.790000e+00 0.000000e+00
-7.780000e+00 0.000000e+00
-7.770000e+00 0.000000e+00
-7.760000e+00 0.000000e+00
-7.750000e+00 0.000000e+00
-7.740000e+00 0.000000e+00
-7.730000e+00 0.000000e+00
-7.720000e+00 0.000000e+00
-7.710000e+00 0.000000e+00
-7.700000e+00 0.000000e+00
-7.690000e+00 0.000000e+00
-7.680000e+00 0.000000e+00
-7.670000e+00 0.000000e+00
-7.660000e+00 0.000000e+00
-7.650000e+00 0.000000e+00
-7.640000e+00 0.000000e+00
-7.630000e+00 0.000000e+00
-7.620000e+00 0.000000e+00
-7.610000e+00 0.000000e+00
-7.600000e+00 0.000000e+00
-7.590000e+00 0.000000e+00
-7.580000e+00 0.000000e+00
-7.570000e+00 0.000000e+00
-7.560000e+00 0.000000e+00
-7.550000e+00 0.000000e+00
-7.540000e+00 0.000000e+00
-7.530000e+00 0.000000e+00
-7.520000e+00 0.000000e+00
-7.510000e+00 0.000000e+00
-7.500000e+00 0.000000e+00
-7.490000e+00 0.000000e+00
-7.480000e+00 0.000000e+00
-7.470000e+00 0.000000e+00
-7.460000e+00 0.000000e+00
-7.450000e+00 0.000000e+00
-7.440000e+00 0.000000e+00
-7.430000e+00 0.000000e+00
-7.420000e+00 0.000000e+00
-7.410000e+00 0.000000e+00
-7.400000e+00 0.000000e+00
-7.390000e+00 0.000000e+00
-7.380000e+00 0.000000e+00
-7.370000e+00 0.000000e+00
-7.360000e+00 0.000000e+00
-7.350000e+00 0.000000e+00
-7.340000e+00 0.000000e+00
-7.330000e+00 0.000000e+00
-7.320000e+00 0.000000e+00
-7.310000e+00 0.000000e+00
-7.300000e+00 0.000000e+00
-7.290000e+00 0.000000e+00
-7.280000e+00 0.000000e+00
-7.270000e+00 0.000000e+00
-7.260000e+00 0.000000e+00
-7.250000e+00 0.000000e+00
-7.240000e+00 0.000000e+00
-7.230000e+00 0.000000e+00
-7.220000e+00 0.000000e+00
-7.210000e+00 0.000000e+00
-7.200000e+00 0.000000e+00
-7.190000e+00 0.000000e+00
-7.180000e+00 0.000000e+00
-7.170000e+00 0.000000e+00
-7.160000e+00 0.000000e+00
-7.150000e+00 0.000000e+00
-7.140000e+00 0.000000e+00
-7.130000e+00 0.000000e+00
-7.120000e+00 0.000000e+00
-7.110000e+00 0.000000e+00
-7.100000e+00 0.000000e+00
-7.090000e+00 0.000000e+00
-7.080000e+00 0.000000e+00
-7.070000e+00 0.000000e+00
-7.060000e+00 0.000000e+00
-7.050000e+00 0.000000e+00
-7.040000e+00 0.000000e+00
-7.030000e+00 0.000000e+00
-7.020000e+00 0.000000e+00
-7.010000e+00 0.000000e+00
-7.000000e+00 0.000000e+00
-6.990000e+00 0.000000e+00
-6.980000e+00 0.000000e+00
-6.970000e+00 0.000000e+00
-6.960000e+00 0.000000e+00
-6.950000e+00 0.000000e+00
-6.940000e+00 0.000000e+00
-6.930000e+00 0.000000e+00
-6.920000e+00 0.000000e+00
-6.910000e+00 0.000000e+00
-6.900000e+00 0.000000e+00
-6.890000e+00 0.000000e+00
-6.880000e+00 0.000000e+00
-6.870000e+00 0.000000e+00
-6.860000e+00 0.000000e+00
-6.850000e+00 0.000000e+00
-6.840000e+00 0.000000e+00
-6.830000e+00 0.000000e+00
-6.820000e+00 0.000000e+00
-6.810000e+00 0.000000e+00
-6.800000e+00 0.000000e+00
-6.790000e+00 0.000000e+00
-6.780000e+00 0.000000e+00
-6.770000e+00 0.000000e+00
-6.760000e+00 0.000000e+00
-6.750000e+00 0.000000e+00
-6.740000e+00 0.000000e+00
-6.730000e+00 0.000000e+00
-6.720000e+00 0.000000e+00
-6.710000e+00 0.000000e+00
-6.700000e+00 0.000000e+00
-6.690000e+00 0.000000e+00
-6.680000e+00 0.000000e+00
-6.670000e+00 0.000000e+00
-6.660000e+00 0.000000e+00
-6.650000e+00 0.000000e+00
-6.640000e+00 0.000000e+00
-6.630000e+00 0.000000e+00
-6.620000e+00 0.000000e+00
-6.610000e+00 0.000000e+00
-6.600000e+00 0.000000e+00
-6.590000e+00 0.000000e+00
-6.580000e+00 0.000000e+00
-6.570000e+00 0.000000e+00
-6.560000e+00 0.000000e+00
-6.550000e+00 0.000000e+00
-6.540000e+00 0.000000e+00
-6.530000e+00 0.000000e+00
-6.520000e+00 0.000000e+00
-6.510000e+00 0.000000e+00
-6.500000e+00 0.000000e+00
-6.490000e+00 0.000000e+00
-6.480000e+00 0.000000e+00
-6.470000e+00 0.000000e+00
-6.460000e+00 0.000000e+00
-6.450000e+00 0.000000e+00
-6.440000e+00 0.000000e+00
-6.430000e+00 0.000000e+00
-6.420000e+00 0.000000e+00
-6.410000e+00 0.000000e+00
-6.400000e+00 0.000000e+00
-6.390000e+00 0.000000e+00
-6.380000e+00 0.000000e+00
-6.370000e+00 0.000000e+00
-6.360000e+00 0.000000e+00
-6.350000e+00 0.000000e+00
-6.340000e+00 0.000000e+00
-6.330000e+00 0.000000e+00
-6.320000e+00 0.000000e+00
-6.310000e+00 0.000000e+00
-6.300000e+00 0.000000e+00
-6.290000e+00 0.000000e+00
-6.280000e+00 0.000000e+00
-6.270000e+00 0.000000e+00
-6.260000e+00 0.000000e+00
-6.250000e+00 0.000000e+00
-6.240000e+00 0.000000e+00
-6.230000e+00 0.000000e+00
-6.220000e+00 0.000000e+00
-6.210000e+00 0.000000e+00
-6.200000e+00 0.000000e+00
-6.190000e+00 0.000000e+00
-6.180000e+00 0.000000e+00
-6.170000e+00 0.000000e+00
-6.160000e+00 0.000000e+00
-6.150000e+00 0.000000e+00
-6.140000e+00 0.000000e+00
-6.130000e+00 0.000000e+00
-6.120000e+00 0.000000e+00
-6.110000e+00 0.000000e+00
-6.100000e+00 0.000000e+00
-6.090000e+00 0.000000e+00
-6.080000e+00 0.000000e+00
-6.070000e+00 0.000000e+00
-6.060000e+00 0.000000e+00
-6.050000e+00 0.000000e+00
-6.040000e+00 0.000000e+00
-6.030000e+00 0.000000e+00
-6.020000e+00 0.000000e+00
-6.010000e+00 0.000000e+00
-6.000000e+00 0.000000e+00
-5.990000e+00 0.000000e+00
-5.980000e+00 0.000000e+00
-5.970000e+00 0.000000e+00
-5.960000e+00 0.000000e+00
-5.950000e+00 0.000000e+00
-5.940000e+00 0.000000e+00
-5.930000e+00 0.000000e+00
-5.920000e+00 0.000000e+00
-5.910000e+00 0.000000e+00
-5.900000e+00 0.000000e+00
-5.890000e+00 0.000000e+00
-5.880000e+00 0.000000e+00
-5.870000e+00 0.000000e+00
-5.860000e+00 0.000000e+00
-5.850000e+00 0.000000e+00
-5.840000e+00 0.000000e+00
-5.830000e+00 0.000000e+00
-5.820000e+00 0.000000e+00
-5.810000e+00 0.000000e+00
-5.800000e+00 0.000000e+00
-5.790000e+00 0.000000e+00
-5.780000e+00 0.000000e+00
-5.770000e+00 0.000000e+00
-5.760000e+00 0.000000e+00
-5.750000e+00 0.000000e+00
-5.740000e+00 0.000000e+00
-5.730000e+00 0.000000e+00
-5.720000e+00 0.000000e+00
-5.710000e+00 0.000000e+00
-5.700000e+00 0.000000e+00
-5.690000e+00 0.000000e+00
-5.680000e+00 0.000000e+00
-5.670000e+00 0.000000e+00
-5.660000e+00 0.000000e+00
-5.650000e+00 0.000000e+00
-5.640000e+00 0.000000e+00
-5.630000e+00 0.000000e+00
-5.620000e+00 0.000000e+00
-5.610000e+00 0.000000e+00
-5.600000e+00 0.000000e+00
-5.590000e+00 0.000000e+00
-5.580000e+00 0.000000e+00
-5.570000e+00 0.000000e+00
-5.560000e+00 0.000000e+00
-5.550000e+00 0.000000e+00
-5.540000e+00 0.000000e+00
-5.530000e+00 0.000000e+00
-5.520000e+00 0.000000e+00
-5.510000e+00 0.000000e+00
-5.500000e+00 0.000000e+00
-5.490000e+00 0.000000e+00
-5.480000e+00 0.000000e+00
-5.470000e+00 0.000000e+00
-5.460000e+00 0.000000e+00
-5.450000e+00 0.000000e+00
-5.440000e+00 0.000000e+00
-5.430000e+00 0.000000e+00
-5.420000e+00 0.000000e+00
-5.410000e+00 0.000000e+00
-5.400000e+00 0.000000e+00
-5.390000e+00 0.000000e+00
-5.380000e+00 0.000000e+00
-5.370000e+00 0.000000e+00
-5.360000e+00 0.000000e+00
-5.350000e+00 0.000000e+00
-5.340000e+00 0.000000e+00
-5.330000e+00 0.000000e+00
-5.320000e+00 0.000000e+00
-5.310000e+00 0.000000e+00
-5.300000e+00 0.000000e+00
-5.290000e+00 0.000000e+00
-5.280000e+00 0.000000e+00
-5.270000e+00 0.000000e+00
-5.260000e+00 0.000000e+00
-5.250000e+00 0.000000e+00
-5.240000e+00 0.000000e+00
-5.230000e+00 0.000000e+00
-5.220000e+00 0.000000e+00
-5.210000e+00 0.000000e+00
-5.200000e+00 0.000000e+00
-5.190000e+00 0.000000e+00
-5.180000e+00 0.000000e+00
-5.170000e+00 0.000000e+00
-5.160000e+00 0.000000e+00
-5.150000e+00 0.000000e+00
-5.140000e+00 0.000000e+00
-5.130000e+00 0.000000e+00
-5.120000e+00 0.000000e+00
-5.110000e+00 0.000000e+00
-5.100000e+00 0.000000e+00
-5.090000e+00 0.000000e+00
-5.080000e+00 0.000000e+00
-5.070000e+00 0.000000e+00
-5.060000e+00 0.000000e+00
-5.050000e+00 0.000000e+00
-5.040000e+00 0.000000e+00
-5.030000e+00 0.000000e+00
-5.020000e+00 0.000000e+00
-5.010000e+00 0.000000e+00
-5.000000e+00 0.000000e+00
-4.990000e+00 0.000000e+00
-4.980000e+00 0.000000e+00
-4.970000e+00 0.000000e+00
-4.960000e+00 0.000000e+00
-4.950000e+00 0.000000e+00
-4.940000e+00 0.000000e+00
-4.930000e+00 0.000000e+00
-4.920000e+00 0.000000e+00
-4.910000e+00 0.000000e+00
-4.900000e+00 0.000000e+00
-4.890000e+00 0.000000e+00
-4.880000e+00 0.000000e+00
-4.870000e+00 0.000000e+00
-4.860000e+00 0.000000e+00
-4.850000e+00 0.000000e+00
-4.840000e+00 0.000000e+00
-4.830000e+00 0.000000e+00
-4.820000e+00 0.000000e+00
-4.810000e+00 0.000000e+00
-4.800000e+00 0.000000e+00
-4.790000e+00 0.000000e+00
-4.780000e+00 0.000000e+00
-4.770000e+00 0.000000e+00
-4.760000e+00 0.000000e+00
-4.750000e+00 0.000000e+00
-4.740000e+00 0.000000e+00
-4.730000e+00 0.000000e+00
-4.720000e+00 0.000000e+00
-4.710000e+00 0.000000e+00
-4.700000e+00 0.000000e+00
-4.690000e+00 0.000000e+00
-4.680000e+00 0.000000e+00
-4.670000e+00 0.000000e+00
-4.660000e+00 0.000000e+00
-4.650000e+00 1.401298e-45
-4.640000e+00 1.401298e-45
-4.630000e+00 1.401298e-45
-4.620000e+00 1.401298e-45
-4.610000e+00 2.802597e-45
-4.600000e+00 4.203895e-45
-4.590000e+00 2.802597e-45
-4.580000e+00 4.203895e-45
-4.570000e+00 5.605194e-45
-4.560000e+00 5.605194e-45
-4.550000e+00 2.802597e-45
-4.540000e+00 1.401298e-45
-4.530000e+00 1.401298e-45
-4.520000e+00 1.401298e-45
-4.510000e+00 2.802597e-45
-4.500000e+00 2.802597e-45
-4.490000e+00 2.802597e-45
-4.480000e+00 0.000000e+00
-4.470000e+00 1.401298e-45
-4.460000e+00 -1.401298e-45
-4.450000e+00 0.000000e+00
-4.440000e+00 0.000000e+00
-4.430000e+00 2.802597e-45
-4.420000e+00 0.000000e+00
-4.410000e+00 -4.203895e-45
-4.400000e+00 -7.006492e-45
-4.390000e+00 -5.605194e-45
-4.380000e+00 -8.407791e-45
-4.370000e+00 -1.121039e-44
-4.360000e+00 -1.681558e-44
-4.350000e+00 -2.242078e-44
-4.340000e+00 -2.942727e-44
-4.330000e+00 -2.802597e-44
-4.320000e+00 -3.222986e-44
-4.310000e+00 -3.363116e-44
-4.300000e+00 -2.942727e-44
-4.290000e+00 -3.222986e-44
-4.280000e+00 -2.942727e-44
-4.270000e+00 -2.662467e-44
-4.260000e+00 -2.942727e-44
-4.250000e+00 -3.503246e-44
-4.240000e+00 -3.363116e-44
-4.230000e+00 -2.942727e-44
-4.220000e+00 -2.522337e-44
-4.210000e+00 -3.222986e-44
-4.200000e+00 -2.522337e-44
-4.190000e+00 -2.242078e-44
-4.180000e+00 -1.401298e-45
-4.170000e+00 -1.401298e-45
-4.160000e+00 1.541428e-44
-4.150000e+00 1.541428e-44
-4.140000e+00 2.662467e-44
-4.130000e+00 3.503246e-44
-4.120000e+00 4.764415e-44
-4.110000e+00 6.445973e-44
-4.100000e+00 6.445973e-44
-4.090000e+00 6.866362e-44
-4.080000e+00 7.006492e-44
-4.070000e+00 7.286752e-44
-4.060000e+00 7.567012e-44
-4.050000e+00 9.108440e-44
-4.040000e+00 8.547921e-44
-4.030000e+00 9.388700e-44
-4.020000e+00 1.064987e-43
-4.010000e+00 1.121039e-43
-4.000000e+00 1.036961e-43
-3.990000e+00 1.261169e-43
-3.980000e+00 1.275182e-43
-3.970000e+00 1.219130e-43
-3.960000e+00 1.261169e-43
-3.950000e+00 1.275182e-43
-3.940000e+00 1.149065e-43
-3.930000e+00 1.247156e-43
-3.920000e+00 1.205117e-43
-3.910000e+00 1.149065e-43
-3.900000e+00 1.177091e-43
-3.890000e+00 9.949219e-44
-3.880000e+00 1.079000e-43
-3.870000e+00 9.949219e-44
-3.860000e+00 1.036961e-43
-3.850000e+00 9.949219e-44
-3.840000e+00 8.828180e-44
-3.830000e+00 1.008935e-43
-3.820000e+00 1.093013e-43
-3.810000e+00 1.050974e-43
-3.800000e+00 9.809089e-44
-3.790000e+00 9.949219e-44
-3.780000e+00 8.547921e-44
-3.770000e+00 7.146622e-44
-3.760000e+00 4.624285e-44
-3.750000e+00 9.809089e-45
-3.740000e+00 -3.643376e-44
-3.730000e+00 -8.267661e-44
-3.720000e+00 -1.387285e-43
-3.710000e+00 -2.115961e-43
-3.700000e+00 -2.956740e-43
-3.690000e+00 -3.713441e-43
-3.680000e+00 -4.750402e-43
-3.670000e+00 -5.717298e-43
-3.660000e+00 -6.754259e-43
-3.650000e+00 -7.679116e-43
-3.640000e+00 -8.547921e-43
-3.630000e+00 -9.248570e-43
-3.620000e+00 -9.654946e-43
-3.610000e+00 -1.001928e-42
-3.600000e+00 -9.879154e-43
-3.590000e+00 -9.304622e-43
-3.580000e+00 -8.491869e-43
-3.570000e+00 -6.852349e-43
-3.560000e+00 -4.694350e-43
-3.550000e+00 -1.877740e-43
-3.540000e+00 1.471363e-43
-3.530000e+00 5.703285e-43
-3.520000e+00 1.042566e-42
-3.510000e+00 1.563849e-42
-3.500000e+00 2.125770e-42
-3.490000e+00 2.729729e-42
-3.480000e+00 3.332288e-42
-3.470000e+00 3.899814e-42
-3.460000e+00 4.422498e-42
-3.450000e+00 4.869512e-42
-3.440000e+00 5.179199e-42
-3.430000e+00 5.341750e-42
-3.420000e+00 5.280093e-42
-3.410000e+00 4.967603e-42
-3.400000e+00 4.380459e-42
-3.390000e+00 3.464010e-42
-3.380000e+00 2.211249e-42
-3.370000e+00 5.843415e-43
-3.360000e+00 -1.405502e-42
-3.350000e+00 -3.763888e-42
-3.340000e+00 -6.443170e-42
-3.330000e+00 -9.411120e-42
-3.320000e+00 -1.257806e-41
-3.310000e+00 -1.585990e-41
-3.300000e+00 -1.914454e-41
-3.290000e+00 -2.227224e-41
-3.280000e+00 -2.508184e-41
-3.270000e+00 -2.738698e-41
-3.260000e+00 -2.896764e-41
-3.250000e+00 -2.965568e-41
-3.240000e+00 -2.920166e-41
-3.230000e+00 -2.739538e-41
-3.220000e+00 -2.405469e-41
-3.210000e+00 -1.901982e-41
-3.200000e+00 -1.216327e-41
-3.190000e+00 -3.413563e-42
-3.180000e+00 7.237707e-42
-3.170000e+00 1.970506e-41
-3.160000e+00 3.382734e-41
-3.150000e+00 4.929908e-41
-3.140000e+00 6.578115e-41
-3.130000e+00 8.273266e-41
-3.120000e+00 9.954824e-41
-3.110000e+00 1.154964e-40
-3.100000e+00 1.297294e-40
-3.090000e+00 1.413139e-40
-3.080000e+00 1.492859e-40
-3.070000e+00 1.525720e-40
-3.060000e+00 1.501645e-40
-3.050000e+00 1.410701e-40
-3.040000e+00 1.243540e-40
-3.030000e+00 9.931142e-41
-3.020000e+00 6.535796e-41
-3.010000e+00 2.220217e-41
-3.000000e+00 -3.009288e-41
-2.990000e+00 -9.110542e-41
-2.980000e+00 -1.599806e-40
-2.970000e+00 -2.353733e-40
-2.960000e+00 -3.154127e-40
-2.950000e+00 -3.977207e-40
-2.940000e+00 -4.793478e-40
-2.930000e+00 -5.568746e-40
-2.920000e+00 -6.263692e-40
-2.910000e+00 -6.835968e-40
-2.900000e+00 -7.239262e-40
-2.890000e+00 -7.426826e-40
-2.880000e+00 -7.351394e-40
-2.870000e+00 -6.968055e-40
-2.860000e+00 -6.236339e-40
-2.850000e+00 -5.121858e-40
-2.840000e+00 -3.599908e-40
-2.830000e+00 -1.657512e-40
-2.820000e+00 7.042926e-41
-2.810000e+00 3.467093e-40
-2.800000e+00 6.593866e-40
-2.790000e+00 1.002637e-39
-2.780000e+00 1.368473e-39
-2.770000e+00 1.746536e-39
-2.760000e+00 2.124255e-39
-2.750000e+00 2.486838e-39
-2.740000e+00 2.817589e-39
-2.730000e+00 3.098080e-39
-2.720000e+00 3.308747e-39
-2.710000e+00 3.429294e-39
-2.700000e+00 3.439493e-39
-2.690000e+00 3.319899e-39
-2.680000e+00 3.052709e-39
-2.670000e+00 2.622817e-39
-2.660000e+00 2.018747e-39
-2.650000e+00 1.233702e-39
-2.640000e+00 2.666587e-40
-2.630000e+00 -8.766691e-40
-2.620000e+00 -2.183046e-39
-2.610000e+00 -3.630823e-39
-2.600000e+00 -5.189486e-39
-2.590000e+00 -6.819362e-39
-2.580000e+00 -8.471661e-39
-2.570000e+00 -1.008870e-38
-2.560000e+00 -1.160482e-38
-2.550000e+00 -1.294736e-38
-2.540000e+00 -1.403842e-38
-2.530000e+00 -1.479687e-38
-2.520000e+00 -1.514070e-38
-2.510000e+00 -1.499008e-38
-2.500000e+00 -1.427054e-38
-2.490000e+00 -1.291644e-38
-2.480000e+00 -1.087486e-38
-2.470000e+00 -8.109520e-39
-2.460000e+00 -4.604489e-39
-2.450000e+00 -3.679726e-40
-2.440000e+00 4.564351e-39
-2.430000e+00 1.012633e-38
-2.420000e+00 1.621937e-38
-2.410000e+00 2.271051e-38
-2.400000e+00 2.943267e-38
-2.390000e+00 3.618521e-38
-2.380000e+00 4.273621e-38
-2.370000e+00 4.882528e-38
-2.360000e+00 5.416900e-38
-2.350000e+00 5.846808e-38
-2.340000e+00 6.141443e-38
-2.330000e+00 6.270123e-38
-2.320000e+00 6.203298e-38
-2.310000e+00 5.913802e-38
-2.300000e+00 5.378127e-38
-2.290000e+00 4.577692e-38
-2.280000e+00 3.500187e-38
-2.270000e+00 2.140881e-38
-2.260000e+00 5.039313e-39
-2.250000e+00 -1.396690e-38
-2.240000e+00 -3.536107e-38
-2.230000e+00 -5.878137e-38
-2.220000e+00 -8.374479e-38
-2.210000e+00 -1.096505e-37
-2.200000e+00 -1.357834e-37
-2.190000e+00 -1.613168e-37
-2.180000e+00 -1.853312e-37
-2.170000e+00 -2.068293e-37
-2.160000e+00 -2.247519e-37
-2.150000e+00 -2.380132e-37
-2.140000e+00 -2.455248e-37
-2.130000e+00 -2.462306e-37
-2.120000e+00 -2.391492e-37
-2.110000e+00 -2.234081e-37
-2.100000e+00 -1.982899e-37
-2.090000e+00 -1.632712e-37
-2.080000e+00 -1.180659e-37
-2.070000e+00 -6.266637e-38
-2.060000e+00 2.625008e-39
-2.050000e+00 7.716313e-38
-2.040000e+00 1.599296e-37
-2.030000e+00 2.495259e-37
-2.020000e+00 3.441586e-37
-2.010000e+00 4.416480e-37
-2.000000e+00 5.394277e-37
-1.990000e+00 6.345957e-37
-1.980000e+00 7.239222e-37
-1.970000e+00 8.039391e-37
-1.960000e+00 8.709678e-37
-1.950000e+00 9.212310e-37
-1.940000e+00 9.509182e-37
-1.930000e+00 9.563143e-37
-1.920000e+00 9.338922e-37
-1.910000e+00 8.804423e-37
-1.900000e+00 7.932015e-37
-1.890000e+00 6.699949e-37
-1.880000e+00 5.093610e-37
-1.870000e+00 3.106718e-37
-1.860000e+00 7.430743e-38
-1.850000e+00 -1.982866e-37
-1.840000e+00 -5.044089e-37
-1.830000e+00 -8.400941e-37
-1.820000e+00 -1.199985e-36
-1.810000e+00 -1.577286e-36
-1.800000e+00 -1.963758e-36
-1.790000e+00 -2.349713e-36
-1.780000e+00 -2.724091e-36
-1.770000e+00 -3.074477e-36
-1.760000e+00 -3.387334e-36
-1.750000e+00 -3.648126e-36
-1.740000e+00 -3.841567e-36
-1.730000e+00 -3.951917e-36
-1.720000e+00 -3.963332e-36
-1.710000e+00 -3.860321e-36
-1.700000e+00 -3.628181e-36
-1.690000e+00 -3.253488e-36
-1.680000e+00 -2.724834e-36
-1.670000e+00 -2.033300e-36
-1.660000e+00 -1.173259e-36
-1.650000e+00 -1.429964e-37
-1.640000e+00 1.054547e-36
-1.630000e+00 2.410939e-36
-1.620000e+00 3.911707e-36
-1.610000e+00 5.535721e-36
-1.600000e+00 7.254376e-36
-1.590000e+00 9.031639e-36
-1.580000e+00 1.082314e-35
-1.570000e+00 1.257684e-35
-1.560000e+00 1.423248e-35
-1.550000e+00 1.572258e-35
-1.540000e+00 1.697295e-35
-1.530000e+00 1.790376e-35
-1.520000e+00 1.843146e-35
-1.510000e+00 1.847048e-35
-1.500000e+00 1.793530e-35
-1.490000e+00 1.674448e-35
-1.480000e+00 1.482250e-35
-1.470000e+00 1.210458e-35
-1.460000e+00 8.540327e-36
-1.450000e+00 4.098055e-36
-1.440000e+00 -1.230850e-36
-1.430000e+00 -7.426367e-36
-1.420000e+00 -1.443712e-35
-1.410000e+00 -2.217481e-35
-1.400000e+00 -3.051064e-35
-1.390000e+00 -3.927316e-35
-1.380000e+00 -4.824574e-35
-1.370000e+00 -5.716584e-35
-1.360000e+00 -6.572583e-35
-1.350000e+00 -7.357556e-35
-1.340000e+00 -8.032725e-35
-1.330000e+00 -8.556097e-35
-1.320000e+00 -8.883570e-35
-1.310000e+00 -8.969812e-35
-1.300000e+00 -8.769902e-35
-1.290000e+00 -8.240893e-35
-1.280000e+00 -7.343627e-35
-1.270000e+00 -6.044840e-35
-1.260000e+00 -4.319588e-35
-1.250000e+00 -2.152806e-35
-1.240000e+00 4.570968e-36
-1.230000e+00 3.496829e-35
-1.220000e+00 6.935981e-35
-1.210000e+00 1.072449e-34
-1.200000e+00 1.479162e-34
-1.190000e+00 1.904460e-34
-1.180000e+00 2.336803e-34
-1.170000e+00 2.762436e-34
-1.160000e+00 3.165472e-34
-1.150000e+00 3.528091e-34
-1.140000e+00 3.830845e-34
-1.130000e+00 4.053122e-34
-1.120000e+00 4.173533e-34
-1.110000e+00 4.170757e-34
-1.100000e+00 4.024150e-34
-1.090000e+00 3.714637e-34
-1.080000e+00 3.225700e-34
-1.070000e+00 2.544292e-34
-1.060000e+00 1.662013e-34
-1.050000e+00 5.760989e-35
-1.040000e+00 -7.095348e-35
-1.030000e+00 -2.183336e-34
-1.020000e+00 -3.825168e-34
-1.010000e+00 -5.605754e-34
-1.000000e+00 -7.486081e-34
-9.900002e-01 -9.417300e-34
-9.800000e-01 -1.134075e-33
-9.700003e-01 -1.318852e-33
-9.600000e-01 -1.488431e-33
-9.500003e-01 -1.634476e-33
-9.400001e-01 -1.748125e-33
-9.300003e-01 -1.820236e-33
-9.200001e-01 -1.841622e-33
-9.100003e-01 -1.803421e-33
-9.000001e-01 -1.697412e-33
-8.900003e-01 -1.516444e-33
-8.800001e-01 -1.254809e-33
-8.700004e-01 -9.087348e-34
-8.600001e-01 -4.767709e-34
-8.500004e-01 3.977606e-35
-8.400002e-01 6.364806e-34
-8.299999e-01 1.305432e-33
-8.200002e-01 2.035003e-33
-8.099999e-01 2.809651e-33
-8.000002e-01 3.609894e-33
-7.900000e-01 4.412347e-33
-7.800002e-01 5.189967e-33
-7.700000e-01 5.912411e-33
-7.600002e-01 6.546612e-33
-7.500000e-01 7.057487e-33
-7.400002e-01 7.408876e-33
-7.300000e-01 7.564621e-33
-7.200003e-01 7.489831e-33
-7.100000e-01 7.152220e-33
-7.000003e-01 6.523661e-33
-6.900001e-01 5.581811e-33
-6.800003e-01 4.311643e-33
-6.700001e-01 2.707131e-33
-6.600003e-01 7.727166e-34
-6.500001e-01 -1.475285e-33
-6.400003e-01 -4.007505e-33
-6.300001e-01 -6.780650e-33
-6.200004e-01 -9.736903e-33
-6.100001e-01 -1.280390e-32
-6.000004e-01 -1.589502e-32
-5.900002e-01 -1.891036e-32
-5.800004e-01 -2.173818e-32
-5.700002e-01 -2.425715e-32
-5.599999e-01 -2.633897e-32
-5.500002e-01 -2.785192e-32
-5.400000e-01 -2.866466e-32
-5.300002e-01 -2.865082e-32
-5.200000e-01 -2.769421e-32
-5.100002e-01 -2.569394e-32
-5.000000e-01 -2.256997e-32
-4.900002e-01 -1.826899e-32
-4.800000e-01 -1.276933e-32
-4.700003e-01 -6.086955e-33
-4.600000e-01 1.720870e-33
-4.500003e-01 1.055097e-32
-4.400001e-01 2.025227e-32
-4.300003e-01 3.062387e-32
-4.200001e-01 4.141530e-32
-4.100003e-01 5.232830e-32
-4.000001e-01 6.302036e-32
-3.900003e-01 7.311038e-32
-3.800001e-01 8.218625e-32
-3.700004e-01 8.981529e-32
-3.600001e-01 9.555468e-32
-3.500004e-01 9.896724e-32
-3.400002e-01 9.963423e-32
-3.300004e-01 9.717378e-32
-3.200002e-01 9.125858e-32
-3.099999e-01 8.163287e-32
-3.000002e-01 6.813187e-32
-2.900000e-01 5.069686e-32
-2.800002e-01 2.939330e-32
-2.700000e-01 4.423923e-33
-2.600002e-01 -2.386179e-32
-2.500000e-01 -5.495896e-32
-2.400002e-01 -8.820558e-32
-2.300000e-01 -1.227839e-31
-2.200003e-01 -1.577294e-31
-2.100000e-01 -1.919439e-31
-2.000003e-01 -2.242164e-31
-1.900001e-01 -2.532495e-31
-1.800003e-01 -2.776918e-31
-1.700001e-01 -2.961805e-31
-1.600003e-01 -3.073780e-31
-1.500001e-01 -3.100329e-31
-1.400003e-01 -3.030201e-31
-1.300001e-01 -2.854025e-31
-1.200004e-01 -2.564853e-31
-1.100001e-01 -2.158679e-31
-1.000004e-01 -1.634925e-31
-9.000015e-02 -9.969318e-32
-8.000040e-02 -2.522663e-32
-7.000017e-02 5.869798e-32
-5.999994e-02 1.504082e-31
-5.000019e-02 2.477660e-31
-3.999996e-02 3.481873e-31
-3.000021e-02 4.486756e-31
-1.999998e-02 5.458752e-31
-1.000023e-02 6.361446e-31
0.000000e+00 7.156470e-31
1.000023e-02 7.804585e-31
1.999950e-02 8.266972e-31
2.999973e-02 8.506577e-31
3.999996e-02 8.489747e-31
5.000019e-02 8.187650e-31
5.999947e-02 7.577956e-31
6.999969e-02 6.646444e-31
7.999992e-02 5.388409e-31
9.000015e-02 3.810060e-31
9.999943e-02 1.929547e-31
1.099997e-01 -2.221835e-32
1.199999e-01 -2.600874e-31
1.300001e-01 -5.149002e-31
1.399994e-01 -7.796172e-31
1.499996e-01 -1.046004e-30
1.599998e-01 -1.304776e-30
1.700001e-01 -1.545816e-30
1.799994e-01 -1.758418e-30
1.899996e-01 -1.931602e-30
1.999998e-01 -2.054509e-30
2.100000e-01 -2.116759e-30
2.200003e-01 -2.108916e-30
2.299995e-01 -2.022959e-30
2.399998e-01 -1.852737e-30
2.500000e-01 -1.594418e-30
2.600002e-01 -1.246970e-30
2.699995e-01 -8.125093e-31
2.799997e-01 -2.966445e-31
2.900000e-01 2.912726e-31
3.000002e-01 9.380107e-31
3.099995e-01 1.626443e-30
3.199997e-01 2.335676e-30
3.299999e-01 3.041307e-30
3.400002e-01 3.715881e-30
3.499994e-01 4.329480e-30
3.599997e-01 4.850526e-30
3.699999e-01 5.246700e-30
3.800001e-01 5.486044e-30
3.899994e-01 5.538202e-30
3.999996e-01 5.375723e-30
4.099998e-01 4.975561e-30
4.200001e-01 4.320348e-30
4.299994e-01 3.399983e-30
4.399996e-01 2.212965e-30
4.499998e-01 7.675368e-31
4.600000e-01 -9.171498e-31
4.700003e-01 -2.810298e-30
4.799995e-01 -4.868927e-30
4.899998e-01 -7.037787e-30
5.000000e-01 -9.249639e-30
5.100002e-01 -1.142598e-29
5.199995e-01 -1.347840e-29
5.299997e-01 -1.531033e-29
5.400000e-01 -1.681934e-29
5.500002e-01 -1.790014e-29
5.599995e-01 -1.844789e-29
5.699997e-01 -1.836190e-29
5.799999e-01 -1.755015e-29
5.900002e-01 -1.593361e-29
5.999994e-01 -1.345060e-29
6.099997e-01 -1.006217e-29
6.199999e-01 -5.756092e-30
6.300001e-01 -5.514014e-31
6.399994e-01 5.497876e-30
6.499996e-01 1.229971e-29
6.599998e-01 1.972173e-29
6.700001e-01 2.759007e-29
6.799994e-01 3.568978e-29
6.899996e-01 4.376595e-29
6.999998e-01 5.152732e-29
7.100000e-01 5.865067e-29
7.200003e-01 6.478786e-29
7.299995e-01 6.957381e-29
7.399998e-01 7.263663e-29
7.500000e-01 7.360942e-29
7.600002e-01 7.214338e-29
7.699995e-01 6.792206e-29
7.799997e-01 6.067705e-29
7.900000e-01 5.020259e-29
8.000002e-01 3.637281e-29
8.099995e-01 1.915667e-29
8.199997e-01 -1.368452e-30
8.299999e-01 -2.500342e-29
8.400002e-01 -5.141658e-29
8.499994e-01 -8.013655e-29
8.599997e-01 -1.105482e-28
8.699999e-01 -1.418926e-28
8.800001e-01 -1.732720e-28
8.899994e-01 -2.036592e-28
8.999996e-01 -2.319138e-28
9.099998e-01 -2.568023e-28
9.200001e-01 -2.770259e-28
9.299994e-01 -2.912535e-28
9.399996e-01 -2.981584e-28
9.499998e-01 -2.964631e-28
9.600000e-01 -2.849854e-28
9.700003e-01 -2.626905e-28
9.799995e-01 -2.287416e-28
9.899998e-01 -1.825553e-28
1.000000e+00 -1.238539e-28
1.010000e+00 -5.271460e-29
1.020000e+00 3.038359e-29
1.030000e+00 1.245228e-28
1.040000e+00 2.283122e-28
1.050000e+00 3.398727e-28
1.059999e+00 4.568251e-28
1.070000e+00 5.763009e-28
1.080000e+00 6.949621e-28
1.090000e+00 8.090438e-28
1.099999e+00 9.144128e-28
1.110000e+00 1.006644e-27
1.120000e+00 1.081118e-27
1.130000e+00 1.133137e-27
1.139999e+00 1.158054e-27
1.150000e+00 1.151424e-27
1.160000e+00 1.109166e-27
1.170000e+00 1.027722e-27
1.179999e+00 9.042489e-28
1.190000e+00 7.367831e-28
1.200000e+00 5.244211e-28
1.210000e+00 2.674779e-28
1.220000e+00 -3.236299e-29
1.230000e+00 -3.719218e-28
1.240000e+00 -7.464299e-28
1.250000e+00 -1.149465e-27
1.260000e+00 -1.572929e-27
1.270000e+00 -2.007069e-27
1.280000e+00 -2.440570e-27
1.290000e+00 -2.860669e-27
1.300000e+00 -3.253357e-27
1.309999e+00 -3.603632e-27
1.320000e+00 -3.895797e-27
1.330000e+00 -4.113851e-27
1.340000e+00 -4.241898e-27
1.349999e+00 -4.264624e-27
1.360000e+00 -4.167822e-27
1.370000e+00 -3.938918e-27
1.380000e+00 -3.567557e-27
1.389999e+00 -3.046162e-27
1.400000e+00 -2.370501e-27
1.410000e+00 -1.540210e-27
1.420000e+00 -5.592916e-28
1.429999e+00 5.634762e-28
1.440000e+00 1.814197e-27
1.450000e+00 3.173624e-27
1.460000e+00 4.617066e-27
1.469999e+00 6.114415e-27
1.480000e+00 7.630329e-27
1.490000e+00 9.124612e-27
1.500000e+00 1.055274e-26
1.510000e+00 1.186662e-26
1.520000e+00 1.301545e-26
1.530000e+00 1.394687e-26
1.540000e+00 1.460821e-26
1.550000e+00 1.494791e-26
1.559999e+00 1.491710e-26
1.570000e+00 1.447127e-26
1.580000e+00 1.357203e-26
1.590000e+00 1.218884e-26
1.599999e+00 1.030087e-26
1.610000e+00 7.898623e-27
1.620000e+00 4.985624e-27
1.630000e+00 1.579753e-27
1.639999e+00 -2.285482e-27
1.650000e+00 -6.560083e-27
1.660000e+00 -1.117700e-26
1.670000e+00 -1.605193e-26
1.679999e+00 -2.108365e-26
1.690000e+00 -2.615479e-26
1.700000e+00 -3.113312e-26
1.710000e+00 -3.587343e-26
1.719999e+00 -4.022001e-26
1.730000e+00 -4.400949e-26
1.740000e+00 -4.707449e-26
1.750000e+00 -4.924759e-26
1.760000e+00 -5.036590e-26
1.770000e+00 -5.027571e-26
1.780000e+00 -4.883802e-26
1.790000e+00 -4.593347e-26
1.800000e+00 -4.146815e-26
1.809999e+00 -3.537862e-26
1.820000e+00 -2.763741e-26
1.830000e+00 -1.825744e-26
1.840000e+00 -7.296508e-27
1.849999e+00 5.139393e-27
1.860000e+00 1.889339e-26
1.870000e+00 3.375607e-26
1.880000e+00 4.946528e-26
1.889999e+00 6.570705e-26
1.900000e+00 8.211797e-26
1.910000e+00 9.828936e-26
1.920000e+00 1.137728e-25
1.929999e+00 1.280873e-25
1.940000e+00 1.407288e-25
1.950000e+00 1.511798e-25
1.960000e+00 1.589219e-25
1.969999e+00 1.634493e-25
1.980000e+00 1.642827e-25
1.990000e+00 1.609848e-25
2.000000e+00 1.531764e-25
2.010000e+00 1.405523e-25
2.020000e+00 1.228972e-25
2.030000e+00 1.001007e-25
2.040000e+00 7.217234e-26
2.050000e+00 3.925342e-26
2.059999e+00 1.628268e-27
2.070000e+00 -4.026797e-26
2.080000e+00 -8.584367e-26
2.090000e+00 -1.343496e-25
2.099999e+00 -1.848803e-25
2.110000e+00 -2.363809e-25
2.120000e+00 -2.876572e-25
2.130000e+00 -3.373915e-25
2.139999e+00 -3.841626e-25
2.150000e+00 -4.264703e-25
2.160000e+00 -4.627644e-25
2.170000e+00 -4.914797e-25
2.179999e+00 -5.110719e-25
2.190000e+00 -5.200600e-25
2.200000e+00 -5.170692e-25
2.210000e+00 -5.008765e-25
2.219999e+00 -4.704574e-25
2.230000e+00 -4.250316e-25
2.240000e+00 -3.641098e-25
2.250000e+00 -2.875336e-25
2.260000e+00 -1.955166e-25
2.270000e+00 -8.867662e-26
2.280000e+00 3.193714e-26
2.290000e+00 1.648253e-25
2.300000e+00 3.080282e-25
2.309999e+00 4.591266e-25
2.320000e+00 6.152534e-25
2.330000e+00 7.731171e-25
2.340000e+00 9.290418e-25
2.349999e+00 1.079012e-24
2.360000e+00 1.218740e-24
2.370000e+00 1.343743e-24
2.380000e+00 1.449429e-24
2.389999e+00 1.531201e-24
2.400000e+00 1.584565e-24
2.410000e+00 1.605251e-24
2.420000e+00 1.589342e-24
2.429999e+00 1.533400e-24
2.440000e+00 1.434601e-24
2.450000e+00 1.290863e-24
2.460000e+00 1.100975e-24
2.469999e+00 8.647105e-25
2.480000e+00 5.829332e-25
2.490000e+00 2.576876e-25
2.500000e+00 -1.077328e-25
2.510000e+00 -5.087379e-25
2.520000e+00 -9.394225e-25
2.530000e+00 -1.392574e-24
2.540000e+00 -1.859715e-24
2.550000e+00 -2.331182e-24
2.559999e+00 -2.796227e-24
2.570000e+00 -3.243176e-24
2.580000e+00 -3.659614e-24
2.590000e+00 -4.032593e-24
2.599999e+00 -4.348907e-24
2.610000e+00 -4.595356e-24
2.620000e+00 -4.759074e-24
2.630000e+00 -4.827858e-24
2.639999e+00 -4.790521e-24
2.650000e+00 -4.637262e-24
2.660000e+00 -4.360015e-24
2.670000e+00 -3.952830e-24
2.679999e+00 -3.412198e-24
2.690000e+00 -2.737386e-24
2.700000e+00 -1.930709e-24
2.710000e+00 -9.977897e-25
2.719999e+00 5.227100e-26
2.730000e+00 1.206752e-24
2.740000e+00 2.449275e-24
2.750000e+00 3.759821e-24
2.760000e+00 5.114842e-24
2.770000e+00 6.487493e-24
2.780000e+00 7.847893e-24
2.790000e+00 9.163558e-24
2.800000e+00 1.039991e-23
2.809999e+00 1.152082e-23
2.820000e+00 1.248937e-23
2.830000e+00 1.326855e-23
2.840000e+00 1.382214e-23
2.849999e+00 1.411561e-23
2.860000e+00 1.411708e-23
2.870000e+00 1.379826e-23
2.880000e+00 1.313546e-23
2.889999e+00 1.211055e-23
2.900000e+00 1.071191e-23
2.910000e+00 8.935279e-24
2.920000e+00 6.784567e-24
2.929999e+00 4.272471e-24
2.940000e+00 1.421066e-24
2.950000e+00 -1.737862e-24
2.960000e+00 -5.162630e-24
2.969999e+00 -8.801682e-24
2.980000e+00 -1.259384e-23
2.990000e+00 -1.646881e-23
3.000000e+00 -2.034789e-23
3.010000e+00 -2.414502e-23
3.020000e+00 -2.776796e-23
3.030000e+00 -3.111987e-23
3.040000e+00 -3.410102e-23
3.050000e+00 -3.661070e-23
3.059999e+00 -3.854948e-23
3.070000e+00 -3.982138e-23