-8.000000e+00 0.000000e+00
-7.950000e+00 0.000000e+00
-7.900000e+00 0.000000e+00
-7.850000e+00 0.000000e+00
-7.800000e+00 0.000000e+00
-7.750000e+00 0.000000e+00
-7.700000e+00 0.000000e+00
-7.650000e+00 0.000000e+00
-7.600000e+00 0.000000e+00
-7.550000e+00 0.000000e+00
-7.500000e+00 0.000000e+00
-7.450000e+00 0.000000e+00
-7.400000e+00 0.000000e+00
-7.350000e+00 0.000000e+00
-7.300000e+00 0.000000e+00
-7.250000e+00 0.000000e+00
-7.200000e+00 0.000000e+00
-7.150000e+00 0.000000e+00
-7.100000e+00 0.000000e+00
-7.050000e+00 0.000000e+00
-7.000000e+00 -1.401298e-45
-6.950000e+00 -2.101948e-44
-6.900000e+00 -1.933792e-43
-6.850000e+00 -1.210722e-42
-6.800000e+00 -6.553873e-42
-6.750000e+00 -2.918344e-41
-6.700000e+00 -1.047667e-40
-6.650000e+00 -2.994182e-40
-6.600000e+00 -6.522932e-40
-6.550000e+00 -9.244226e-40
-6.500000e+00 -8.560112e-41
-6.450000e+00 4.000229e-39
-6.400000e+00 1.307497e-38
-6.350000e+00 2.292826e-38
-6.300000e+00 1.487842e-38
-6.250000e+00 -4.406732e-38
-6.200000e+00 -1.688557e-37
-6.150000e+00 -2.795531e-37
-6.100000e+00 -1.340154e-37
-6.050000e+00 5.686886e-37
-6.000000e+00 1.736817e-36
-5.950000e+00 2.217989e-36
-5.900000e+00 -2.387689e-37
-5.850000e+00 -6.980151e-36
-5.800000e+00 -1.404527e-35
-5.750000e+00 -9.067336e-36
-5.700000e+00 2.151402e-35
-5.650000e+00 6.795043e-35
-5.600000e+00 6.999328e-35
-5.550000e+00 -6.087086e-35
-5.500000e+00 -3.130099e-34
-5.450000e+00 -3.962244e-34
-5.400000e+00 1.982483e-34
-5.350000e+00 1.532664e-33
-5.300000e+00 2.174726e-33
-5.250000e+00 -6.884740e-34
-5.200000e+00 -7.852521e-33
-5.150000e+00 -1.228912e-32
-5.100000e+00 1.140988e-33
-5.050000e+00 3.900800e-32
-5.000000e+00 6.871099e-32
-4.950000e+00 1.234805e-32
-4.900000e+00 -1.767077e-31
-4.850000e+00 -3.614149e-31
-4.800000e+00 -1.662103e-31
-4.750000e+00 7.008406e-31
-4.700000e+00 1.737314e-30
-4.650000e+00 1.270628e-30
-4.600000e+00 -2.321548e-30
-4.550000e+00 -7.528783e-30
-4.500000e+00 -7.534132e-30
-4.450000e+00 5.717514e-30
-4.400000e+00 2.915273e-29
-4.350000e+00 3.755602e-29
-4.300000e+00 -5.033755e-30
-4.250000e+00 -9.965596e-29
-4.200000e+00 -1.626222e-28
-4.150000e+00 -4.893086e-29
-4.100000e+00 2.934670e-28
-4.050000e+00 6.204539e-28
-4.000000e+00 4.030404e-28
-3.950000e+00 -7.005420e-28
-3.900000e+00 -2.092387e-27
-3.850000e+00 -2.029557e-27
-3.800000e+00 1.089556e-27
-3.750000e+00 6.191341e-27
-3.700000e+00 8.124097e-27
-3.650000e+00 6.705394e-28
-3.600000e+00 -1.570243e-26
-3.550000e+00 -2.753713e-26
-3.500000e+00 -1.392226e-26
-3.450000e+00 3.209491e-26
-3.400000e+00 8.042075e-26
-3.350000e+00 6.917532e-26
-3.300000e+00 -4.244850e-26
-3.250000e+00 -2.012741e-25
-3.200000e+00 -2.460177e-25
-3.150000e+00 -2.144670e-26
-3.100000e+00 4.188286e-25
-3.050000e+00 7.083250e-25
-3.000000e+00 3.741093e-25
-2.950000e+00 -6.632448e-25
-2.900000e+00 -1.696126e-24
-2.850000e+00 -1.507750e-24
-2.800000e+00 5.362935e-25
-2.750000e+00 3.340861e-24
-2.700000e+00 4.222483e-24
-2.650000e+00 1.011528e-24
-2.600000e+00 -5.144979e-24
-2.550000e+00 -9.166121e-24
-2.500000e+00 -5.614643e-24
-2.450000e+00 5.365928e-24
-2.400000e+00 1.545676e-23
-2.350000e+00 1.373671e-23
-2.300000e+00 -2.054853e-24
-2.250000e+00 -1.934460e-23
-2.200000e+00 -1.978521e-23
-2.150000e+00 2.817061e-25
-2.100000e+00 1.882956e-23
-2.050000e+00 6.929575e-24
-2.000000e+00 -3.090560e-23
-1.950000e+00 -3.906684e-23
-1.900000e+00 4.076337e-23
-1.850000e+00 1.746067e-22
-1.800000e+00 1.970149e-22
-1.750000e+00 -6.599436e-23
-1.700000e+00 -5.464419e-22
-1.650000e+00 -7.965406e-22
-1.600000e+00 -2.489688e-22
-1.550000e+00 1.136368e-21
-1.500000e+00 2.363701e-21
-1.450000e+00 1.790331e-21
-1.400000e+00 -1.370573e-21
-1.350000e+00 -5.427949e-21
-1.300000e+00 -6.341249e-21
-1.250000e+00 -7.202410e-22
-1.200000e+00 9.778436e-21
-1.150000e+00 1.677443e-20
-1.100000e+00 9.983951e-21
-1.050000e+00 -1.255006e-20
-1.000000e+00 -3.668232e-20
-9.499998e-01 -3.703202e-20
-9.000001e-01 2.744618e-21
-8.499999e-01 6.647939e-20
-7.999997e-01 1.018944e-19
-7.500000e-01 5.282602e-20
-6.999998e-01 -8.472121e-20
-6.500001e-01 -2.261677e-19
-5.999999e-01 -2.299486e-19
-5.499997e-01 -4.554281e-21
-5.000000e-01 3.717271e-19
-4.499998e-01 6.272549e-19
-4.000001e-01 4.443338e-19
-3.499999e-01 -2.695797e-19
-2.999997e-01 -1.171674e-18
-2.500000e-01 -1.555891e-18
-1.999998e-01 -7.848569e-19
-1.500001e-01 1.118219e-18
-9.999990e-02 3.147629e-18
-4.999971e-02 3.662032e-18
0.000000e+00 1.425003e-18
5.000019e-02 -3.187691e-18
1.000004e-01 -7.703155e-18
1.500006e-01 -8.494405e-18
1.999998e-01 -3.056630e-18
2.500000e-01 7.532415e-18
3.000002e-01 1.774449e-17
3.500004e-01 1.967839e-17
4.000006e-01 7.850441e-18
4.499998e-01 -1.561588e-17
5.000000e-01 -3.901482e-17
5.500002e-01 -4.517901e-17
6.000004e-01 -2.146181e-17
6.500006e-01 2.898227e-17
6.999998e-01 8.218274e-17
7.500000e-01 1.011006e-16
8.000002e-01 5.640361e-17
8.500004e-01 -4.877055e-17
9.000006e-01 -1.662096e-16
9.499998e-01 -2.170363e-16
1.000000e+00 -1.352162e-16
1.050000e+00 7.823188e-17
1.100000e+00 3.255359e-16
1.150001e+00 4.409186e-16
1.200000e+00 2.840216e-16
1.250000e+00 -1.424004e-16
1.300000e+00 -6.300921e-16
1.350000e+00 -8.343443e-16
1.400001e+00 -4.839445e-16
1.450000e+00 3.685175e-16
1.500000e+00 1.242207e-15
1.550000e+00 1.430437e-15
1.600000e+00 4.936500e-16
1.650001e+00 -1.233921e-15
1.700000e+00 -2.561903e-15
1.750000e+00 -2.083870e-15
1.800000e+00 6.489206e-16
1.850000e+00 4.199033e-15
1.900001e+00 5.550232e-15
1.950000e+00 2.062039e-15
2.000000e+00 -5.806796e-15
2.050000e+00 -1.309914e-14
2.100000e+00 -1.235139e-14
2.150001e+00 9.060002e-16
2.200000e+00 2.218571e-14
2.250000e+00 3.682077e-14
2.300000e+00 2.730331e-14
2.350000e+00 -1.260062e-14
2.400001e+00 -6.581255e-14
2.450000e+00 -9.379873e-14
2.500000e+00 -5.820693e-14
2.550000e+00 4.605050e-14
2.600000e+00 1.688455e-13
2.650001e+00 2.184677e-13
2.700000e+00 1.170753e-13
2.750000e+00 -1.281776e-13
2.800000e+00 -3.901303e-13
2.850000e+00 -4.685774e-13
2.900001e+00 -2.181262e-13
2.950000e+00 3.111278e-13
3.000000e+00 8.284344e-13
3.050000e+00 9.298166e-13
3.100000e+00 3.680931e-13
3.150001e+00 -6.912287e-13
3.200000e+00 -1.636310e-12
3.250000e+00 -1.710489e-12
3.300000e+00 -5.399249e-13
3.350000e+00 1.440530e-12
3.400001e+00 3.031409e-12
3.450000e+00 2.915445e-12
3.500000e+00 6.170000e-13
3.550000e+00 -2.858538e-12
3.600000e+00 -5.303253e-12
3.650001e+00 -4.589296e-12
3.700000e+00 -2.960764e-13
3.750000e+00 5.451947e-12
3.800000e+00 8.818489e-12
3.850000e+00 6.631314e-12
3.900001e+00 -1.045505e-12
3.950000e+00 -1.003709e-11
4.000000e+00 -1.403132e-11
4.050000e+00 -8.712936e-12
4.100000e+00 4.463943e-12
4.150001e+00 1.780971e-11
4.200000e+00 2.148185e-11
4.250000e+00 1.025334e-11
4.300000e+00 -1.141227e-11
4.350000e+00 -3.021495e-11
4.400001e+00 -3.165725e-11
4.450000e+00 -1.044901e-11
4.500000e+00 2.339564e-11
4.550000e+00 4.832191e-11
4.600000e+00 4.436481e-11
4.650001e+00 8.067601e-12
4.700000e+00 -4.142996e-11
4.750000e+00 -7.154365e-11
4.800000e+00 -5.713777e-11
4.850000e+00 -2.244328e-13
4.900001e+00 6.626304e-11
4.950000e+00 9.656738e-11
5.000000e+00 6.302877e-11
5.050000e+00 -2.047416e-11
5.100000e+00 -1.012485e-10
5.150001e+00 -1.195486e-10
5.200000e+00 -5.129555e-11
5.250000e+00 6.776775e-11
5.300000e+00 1.576658e-10
5.350000e+00 1.451405e-10
5.400001e+00 1.872514e-11
5.450000e+00 -1.517371e-10
5.500000e+00 -2.513963e-10
5.550000e+00 -1.952149e-10
5.600000e+00 6.888157e-12
5.650001e+00 2.430247e-10
5.700000e+00 3.636133e-10
5.750000e+00 2.800065e-10
5.800000e+00 3.065747e-11
5.850000e+00 -2.365236e-10
5.900001e+00 -3.613478e-10
5.950000e+00 -2.841448e-10
6.000000e+00 -9.108582e-11
6.050000e+00 4.956963e-11
6.100000e+00 2.280788e-11
6.150001e+00 -1.250799e-10
6.200000e+00 -1.980527e-10
6.250000e+00 6.175463e-12
6.300000e+00 5.115248e-10
6.350000e+00 1.078621e-09
6.400001e+00 1.309186e-09
6.450000e+00 8.993248e-10
6.500000e+00 -1.208958e-10
6.550000e+00 -1.343256e-09
6.600000e+00 -2.197949e-09
6.650001e+00 -2.310572e-09
6.700000e+00 -1.753998e-09
6.750000e+00 -9.903087e-10
6.800000e+00 -5.016465e-10
6.850000e+00 -3.483576e-10
6.900001e+00 6.746920e-12
6.950000e+00 1.407277e-09
7.000000e+00 4.358354e-09
7.050000e+00 8.427042e-09
7.100000e+00 1.213079e-08
7.150001e+00 1.348762e-08
7.200000e+00 1.096817e-08
7.250000e+00 4.277715e-09
7.300000e+00 -5.555472e-09
7.350000e+00 -1.689289e-08
7.400001e+00 -2.857365e-08
7.450000e+00 -4.066584e-08
7.500000e+00 -5.435776e-08
7.550000e+00 -7.103720e-08
7.600000e+00 -9.119226e-08
7.650001e+00 -1.139471e-07
7.700000e+00 -1.376564e-07
7.750000e+00 -1.612473e-07
7.800000e+00 -1.854205e-07
7.850000e+00 -2.128213e-07
7.900001e+00 -2.469384e-07
7.950000e+00 -2.903669e-07
8.000000e+00 -3.435840e-07
8.050001e+00 -4.051378e-07
8.100000e+00 -4.732411e-07
8.150000e+00 -5.477910e-07
8.200001e+00 -6.314663e-07
8.250000e+00 -7.290884e-07
8.300001e+00 -8.455783e-07
8.350000e+00 -9.838210e-07
8.400000e+00 -1.143894e-06
8.450001e+00 -1.324278e-06
8.500000e+00 -1.524389e-06
8.550001e+00 -1.746857e-06
8.600000e+00 -1.998127e-06
8.650000e+00 -2.286988e-06
8.700001e+00 -2.621989e-06
8.750000e+00 -3.009351e-06
8.800001e+00 -3.452614e-06
8.850000e+00 -3.954066e-06
8.900000e+00 -4.516938e-06
8.950001e+00 -5.146936e-06
9.000000e+00 -5.852488e-06
9.050001e+00 -6.643920e-06
9.100000e+00 -7.532627e-06
9.150000e+00 -8.530989e-06
9.200001e+00 -9.652890e-06
9.250000e+00 -1.091408e-05
9.300001e+00 -1.233143e-05
9.350000e+00 -1.392125e-05
9.400000e+00 -1.569782e-05
9.450001e+00 -1.767346e-05
9.500000e+00 -1.986103e-05
9.550001e+00 -2.227774e-05
9.600000e+00 -2.494810e-05
9.650000e+00 -2.790387e-05
9.700001e+00 -3.118080e-05
9.750000e+00 -3.481352e-05
9.800001e+00 -3.883186e-05
9.850000e+00 -4.326085e-05
9.900000e+00 -4.812449e-05
9.950001e+00 -5.345116e-05
1.000000e+01 -5.927725e-05
1.005000e+01 -6.564729e-05
1.010000e+01 -7.260975e-05
1.015000e+01 -8.021268e-05
1.020000e+01 -8.850083e-05
1.025000e+01 -9.751697e-05
1.030000e+01 -1.073054e-04
1.035000e+01 -1.179156e-04
1.040000e+01 -1.294023e-04
1.045000e+01 -1.418225e-04
1.050000e+01 -1.552308e-04
1.055000e+01 -1.696765e-04
1.060000e+01 -1.852051e-04
1.065000e+01 -2.018631e-04
1.070000e+01 -2.197025e-04
1.075000e+01 -2.387833e-04
1.080000e+01 -2.591693e-04
1.085000e+01 -2.809222e-04
1.090000e+01 -3.040931e-04
1.095000e+01 -3.287211e-04
1.100000e+01 -3.548336e-04
1.105000e+01 -3.824535e-04
1.110000e+01 -4.116056e-04
1.115000e+01 -4.423187e-04
1.120000e+01 -4.746249e-04
1.125000e+01 -5.085532e-04
1.130000e+01 -5.441203e-04
1.135000e+01 -5.813289e-04
1.140000e+01 -6.201627e-04
1.145000e+01 -6.605901e-04
1.150000e+01 -7.025693e-04
1.155000e+01 -7.460474e-04
1.160000e+01 -7.909664e-04
1.165000e+01 -8.372601e-04
1.170000e+01 -8.848531e-04
1.175000e+01 -9.336549e-04
1.180000e+01 -9.835614e-04
1.185000e+01 -1.034448e-03
1.190000e+01 -1.086167e-03
1.195000e+01 -1.138555e-03
1.200000e+01 -1.191428e-03
1.205000e+01 -1.244586e-03
1.210000e+01 -1.297818e-03
1.215000e+01 -1.350899e-03
1.220000e+01 -1.403592e-03
1.225000e+01 -1.455642e-03
1.230000e+01 -1.506781e-03
1.235000e+01 -1.556720e-03
1.240000e+01 -1.605156e-03
1.245000e+01 -1.651777e-03
1.250000e+01 -1.696257e-03
1.255000e+01 -1.738261e-03
1.260000e+01 -1.777447e-03
1.265000e+01 -1.813467e-03
1.270000e+01 -1.845967e-03
1.275000e+01 -1.874589e-03
1.280000e+01 -1.898979e-03
1.285000e+01 -1.918783e-03
1.290000e+01 -1.933660e-03
1.295000e+01 -1.943272e-03
1.300000e+01 -1.947289e-03
1.305000e+01 -1.945397e-03
1.310000e+01 -1.937292e-03
1.315000e+01 -1.922690e-03
1.320000e+01 -1.901333e-03
1.325000e+01 -1.872984e-03
1.330000e+01 -1.837436e-03
1.335000e+01 -1.794516e-03
1.340000e+01 -1.744080e-03
1.345000e+01 -1.686021e-03
1.350000e+01 -1.620266e-03
1.355000e+01 -1.546781e-03
1.360000e+01 -1.465574e-03
1.365000e+01 -1.376697e-03
1.370000e+01 -1.280246e-03
1.375000e+01 -1.176366e-03
1.380000e+01 -1.065250e-03
1.385000e+01 -9.471383e-04
1.390000e+01 -8.223191e-04
1.395000e+01 -6.911261e-04
1.400000e+01 -5.539356e-04
1.405000e+01 -4.111680e-04
1.410000e+01 -2.632841e-04
1.415000e+01 -1.107907e-04
1.420000e+01 4.576485e-05
1.425000e+01 2.057949e-04
1.430000e+01 3.686749e-04
1.435000e+01 5.337484e-04
1.440000e+01 7.003330e-04
1.445000e+01 8.677255e-04
1.450000e+01 1.035207e-03
1.455000e+01 1.202044e-03
1.460000e+01 1.367496e-03
1.465000e+01 1.530807e-03
1.470000e+01 1.691224e-03
1.475000e+01 1.847993e-03
1.480000e+01 2.000373e-03
1.485000e+01 2.147635e-03
1.490000e+01 2.289075e-03
1.495000e+01 2.424019e-03
1.500000e+01 2.551815e-03
1.505000e+01 2.671850e-03
1.510000e+01 2.783538e-03
1.515000e+01 2.886343e-03
1.520000e+01 2.979767e-03
1.525000e+01 3.063367e-03
1.530000e+01 3.136753e-03
1.535000e+01 3.199601e-03
1.540000e+01 3.251638e-03
1.545000e+01 3.292655e-03
1.550000e+01 3.322500e-03
1.555000e+01 3.341084e-03
1.560000e+01 3.348376e-03
1.565000e+01 3.344404e-03
1.570000e+01 3.329263e-03
1.575000e+01 3.303105e-03
1.580000e+01 3.266154e-03
1.585000e+01 3.218685e-03
1.590000e+01 3.161030e-03
1.595000e+01 3.093578e-03
1.600000e+01 3.016762e-03
1.605000e+01 2.931059e-03
1.610000e+01 2.836992e-03
1.615000e+01 2.735119e-03
1.620000e+01 2.626032e-03
1.625000e+01 2.510354e-03
1.630000e+01 2.388731e-03
1.635000e+01 2.261829e-03
1.640000e+01 2.130331e-03
1.645000e+01 1.994926e-03
1.650000e+01 1.856314e-03
1.655000e+01 1.715191e-03
1.660000e+01 1.572257e-03
1.665000e+01 1.428197e-03
1.670000e+01 1.283690e-03
1.675000e+01 1.139391e-03
1.680000e+01 9.959372e-04
1.685000e+01 8.539370e-04
1.690000e+01 7.139767e-04
1.695000e+01 5.766119e-04
1.700000e+01 4.423628e-04
1.705000e+01 3.117172e-04
1.710000e+01 1.851200e-04
1.715000e+01 6.297782e-05
1.720000e+01 -5.434307e-05
1.725000e+01 -1.665158e-04
1.730000e+01 -2.732515e-04
1.735000e+01 -3.743012e-04
1.740000e+01 -4.694572e-04
1.745000e+01 -5.585558e-04
1.750000e+01 -6.414769e-04
1.755000e+01 -7.181429e-04
1.760000e+01 -7.885154e-04
1.765000e+01 -8.525914e-04
1.770000e+01 -9.104017e-04
1.775000e+01 -9.620057e-04
1.780000e+01 -1.007496e-03
1.785000e+01 -1.046991e-03
1.790000e+01 -1.080639e-03
1.795000e+01 -1.108613e-03
1.800000e+01 -1.131105e-03
1.805000e+01 -1.148331e-03
1.810000e+01 -1.160519e-03
1.815000e+01 -1.167915e-03
1.820000e+01 -1.170772e-03
1.825000e+01 -1.169361e-03
1.830000e+01 -1.163956e-03
1.835000e+01 -1.154836e-03
1.840000e+01 -1.142282e-03
1.845000e+01 -1.126578e-03
1.850000e+01 -1.108002e-03
1.855000e+01 -1.086828e-03
1.860000e+01 -1.063330e-03
1.865000e+01 -1.037774e-03
1.870000e+01 -1.010425e-03
1.875000e+01 -9.815342e-04
1.880000e+01 -9.513434e-04
1.885000e+01 -9.200836e-04
1.890000e+01 -8.879754e-04
1.895000e+01 -8.552255e-04
1.900000e+01 -8.220294e-04
1.905000e+01 -7.885695e-04
1.910000e+01 -7.550191e-04
1.915000e+01 -7.215365e-04
1.920000e+01 -6.882682e-04
1.925000e+01 -6.553479e-04
1.930000e+01 -6.228948e-04
1.935000e+01 -5.910136e-04
1.940000e+01 -5.597985e-04
1.945000e+01 -5.293286e-04
1.950000e+01 -4.996771e-04
1.955000e+01 -4.709043e-04
1.960000e+01 -4.430625e-04
1.965000e+01 -4.161942e-04
1.970000e+01 -3.903324e-04
1.975000e+01 -3.655009e-04
1.980000e+01 -3.417166e-04
1.985000e+01 -3.189885e-04
1.990000e+01 -2.973192e-04
1.995000e+01 -2.767044e-04
2.000000e+01 -2.571333e-04
2.005000e+01 -2.385912e-04
2.010000e+01 -2.210603e-04
2.015000e+01 -2.045192e-04
2.020000e+01 -1.889434e-04
2.025000e+01 -1.743045e-04
2.030000e+01 -1.605700e-04
2.035000e+01 -1.477049e-04
2.040000e+01 -1.356739e-04
2.045000e+01 -1.244426e-04
2.050000e+01 -1.139779e-04
2.055000e+01 -1.042458e-04
2.060000e+01 -9.521047e-05
2.065000e+01 -8.683468e-05
2.070000e+01 -7.908057e-05
2.075000e+01 -7.191118e-05
2.080000e+01 -6.529175e-05
2.085000e+01 -5.918886e-05
2.090000e+01 -5.356997e-05
2.095000e+01 -4.840302e-05
2.100000e+01 -4.365697e-05
2.105000e+01 -3.930202e-05
2.110000e+01 -3.530988e-05
2.115000e+01 -3.165309e-05
2.120000e+01 -2.830455e-05
2.125000e+01 -2.523772e-05
2.130000e+01 -2.242740e-05
2.135000e+01 -1.985053e-05
2.140000e+01 -1.748564e-05
2.145000e+01 -1.531162e-05
2.150000e+01 -1.330634e-05
2.155000e+01 -1.144663e-05
2.160000e+01 -9.709252e-06
2.165000e+01 -8.072466e-06
2.170000e+01 -6.516510e-06
2.175000e+01 -5.022854e-06
2.180000e+01 -3.573083e-06
2.185000e+01 -2.148398e-06
2.190000e+01 -7.301400e-07
2.195000e+01 6.995564e-07
2.200000e+01 2.158174e-06
2.205000e+01 3.664516e-06
2.210000e+01 5.240579e-06
2.215000e+01 6.912107e-06
2.220000e+01 8.707167e-06
2.225000e+01 1.065397e-05
2.230000e+01 1.277966e-05
2.235000e+01 1.511117e-05
2.240000e+01 1.767741e-05
2.245000e+01 2.051110e-05
2.250000e+01 2.364900e-05
2.255000e+01 2.713099e-05
2.260000e+01 3.099922e-05
2.265000e+01 3.529856e-05
2.270000e+01 4.007788e-05
2.275000e+01 4.539100e-05
2.280000e+01 5.129638e-05
2.285000e+01 5.785615e-05
2.290000e+01 6.513551e-05
2.295000e+01 7.320428e-05
2.300000e+01 8.213869e-05
2.305000e+01 9.202270e-05
2.310000e+01 1.029468e-04
2.315000e+01 1.150062e-04
2.320000e+01 1.282988e-04
2.325000e+01 1.429268e-04
2.330000e+01 1.589989e-04
2.335000e+01 1.766326e-04
2.340000e+01 1.959543e-04
2.345000e+01 2.170969e-04
2.350000e+01 2.401970e-04
2.355000e+01 2.653944e-04
2.360000e+01 2.928336e-04
2.365000e+01 3.226660e-04
2.370000e+01 3.550510e-04
2.375000e+01 3.901534e-04
2.380000e+01 4.281416e-04
2.385000e+01 4.691852e-04
2.390000e+01 5.134558e-04
2.395000e+01 5.611264e-04
2.400000e+01 6.123717e-04
2.405000e+01 6.673642e-04
2.410000e+01 7.262722e-04
2.415000e+01 7.892608e-04
2.420000e+01 8.564898e-04
2.425000e+01 9.281169e-04
2.430000e+01 1.004296e-03
2.435000e+01 1.085170e-03
2.440000e+01 1.170867e-03
2.445000e+01 1.261496e-03
2.450000e+01 1.357146e-03
2.455000e+01 1.457888e-03
2.460000e+01 1.563773e-03
2.465000e+01 1.674831e-03
2.470000e+01 1.791065e-03
2.475000e+01 1.912444e-03
2.480000e+01 2.038907e-03
2.485000e+01 2.170356e-03
2.490000e+01 2.306661e-03
2.495000e+01 2.447655e-03
2.500000e+01 2.593124e-03
2.505000e+01 2.742807e-03
2.510000e+01 2.896395e-03
2.515000e+01 3.053528e-03
2.520000e+01 3.213801e-03
2.525000e+01 3.376758e-03
2.530000e+01 3.541888e-03
2.535000e+01 3.708629e-03
2.540000e+01 3.876352e-03
2.545000e+01 4.044383e-03
2.550000e+01 4.211989e-03
2.555000e+01 4.378385e-03
2.560000e+01 4.542730e-03
2.565000e+01 4.704135e-03
2.570000e+01 4.861654e-03
2.575000e+01 5.014305e-03
2.580000e+01 5.161059e-03
2.585000e+01 5.300855e-03
2.590000e+01 5.432597e-03
2.595000e+01 5.555151e-03
2.600000e+01 5.667367e-03
2.605000e+01 5.768073e-03
2.610000e+01 5.856078e-03
2.615000e+01 5.930205e-03
2.620000e+01 5.989283e-03
2.625000e+01 6.032146e-03
2.630000e+01 6.057658e-03
2.635000e+01 6.064708e-03
2.640000e+01 6.052235e-03
2.645000e+01 6.019219e-03
2.650000e+01 5.964715e-03
2.655000e+01 5.887836e-03
2.660000e+01 5.787777e-03
2.665000e+01 5.663820e-03
2.670000e+01 5.515347e-03
2.675000e+01 5.341854e-03
2.680000e+01 5.142951e-03
2.685000e+01 4.918376e-03
2.690000e+01 4.667991e-03
2.695000e+01 4.391802e-03
2.700000e+01 4.089961e-03
2.705000e+01 3.762769e-03
2.710000e+01 3.410681e-03
2.715000e+01 3.034316e-03
2.720000e+01 2.634455e-03
2.725000e+01 2.212023e-03
2.730000e+01 1.768118e-03
2.735000e+01 1.303994e-03
2.740000e+01 8.210640e-04
2.745000e+01 3.208883e-04
2.750000e+01 -1.948273e-04
2.755000e+01 -7.242395e-04
2.760000e+01 -1.265374e-03
2.765000e+01 -1.816132e-03
2.770000e+01 -2.374303e-03
2.775000e+01 -2.937586e-03
2.780000e+01 -3.503589e-03
2.785000e+01 -4.069856e-03
2.790000e+01 -4.633867e-03
2.795000e+01 -5.193073e-03
2.800000e+01 -5.744889e-03
2.805000e+01 -6.286728e-03
2.810000e+01 -6.816015e-03
2.815000e+01 -7.330201e-03
2.820000e+01 -7.826771e-03
2.825000e+01 -8.303304e-03
2.830000e+01 -8.757417e-03
2.835000e+01 -9.186845e-03
2.840000e+01 -9.589441e-03
2.845000e+01 -9.963174e-03
2.850000e+01 -1.030617e-02
2.855000e+01 -1.061671e-02
2.860000e+01 -1.089323e-02
2.865000e+01 -1.113436e-02
2.870000e+01 -1.133890e-02
2.875000e+01 -1.150589e-02
2.880000e+01 -1.163454e-02
2.885000e+01 -1.172428e-02
2.890000e+01 -1.177476e-02
2.895000e+01 -1.178585e-02
2.900000e+01 -1.175762e-02
2.905000e+01 -1.169040e-02
2.910000e+01 -1.158469e-02
2.915000e+01 -1.144123e-02
2.920000e+01 -1.126095e-02
2.925000e+01 -1.104497e-02
2.930000e+01 -1.079461e-02
2.935000e+01 -1.051137e-02
2.940000e+01 -1.019689e-02
2.945000e+01 -9.852992e-03
