-8.000000e+00 0.000000e+00
-7.950000e+00 0.000000e+00
-7.900000e+00 0.000000e+00
-7.850000e+00 0.000000e+00
-7.800000e+00 0.000000e+00
-7.750000e+00 0.000000e+00
-7.700000e+00 0.000000e+00
-7.650000e+00 0.000000e+00
-7.600000e+00 0.000000e+00
-7.550000e+00 0.000000e+00
-7.500000e+00 0.000000e+00
-7.450000e+00 0.000000e+00
-7.400000e+00 0.000000e+00
-7.350000e+00 0.000000e+00
-7.300000e+00 0.000000e+00
-7.250000e+00 0.000000e+00
-7.200000e+00 0.000000e+00
-7.150000e+00 0.000000e+00
-7.100000e+00 0.000000e+00
-7.050000e+00 0.000000e+00
-7.000000e+00 0.000000e+00
-6.950000e+00 0.000000e+00
-6.900000e+00 0.000000e+00
-6.850000e+00 0.000000e+00
-6.800000e+00 0.000000e+00
-6.750000e+00 0.000000e+00
-6.700000e+00 0.000000e+00
-6.650000e+00 0.000000e+00
-6.600000e+00 0.000000e+00
-6.550000e+00 0.000000e+00
-6.500000e+00 0.000000e+00
-6.450000e+00 0.000000e+00
-6.400000e+00 0.000000e+00
-6.350000e+00 0.000000e+00
-6.300000e+00 0.000000e+00
-6.250000e+00 0.000000e+00
-6.200000e+00 0.000000e+00
-6.150000e+00 0.000000e+00
-6.100000e+00 0.000000e+00
-6.050000e+00 -1.401298e-45
-6.000000e+00 0.000000e+00
-5.950000e+00 0.000000e+00
-5.900000e+00 -2.942727e-44
-5.850000e+00 -7.006492e-44
-5.800000e+00 -9.108440e-44
-5.750000e+00 1.681558e-44
-5.700000e+00 4.217908e-43
-5.650000e+00 9.402713e-43
-5.600000e+00 9.304622e-43
-5.550000e+00 -6.502025e-43
-5.500000e+00 -4.081982e-42
-5.450000e+00 -6.843942e-42
-5.400000e+00 -2.427049e-42
-5.350000e+00 1.461274e-41
-5.300000e+00 3.564343e-41
-5.250000e+00 2.702824e-41
-5.200000e+00 -4.867130e-41
-5.150000e+00 -1.587741e-40
-5.100000e+00 -1.316212e-40
-5.050000e+00 2.320186e-40
-5.000000e+00 7.420856e-40
-4.950000e+00 4.494216e-40
-4.900000e+00 -1.645677e-39
-4.850000e+00 -4.155877e-39
-4.800000e+00 -1.391187e-39
-4.750000e+00 1.196612e-38
-4.700000e+00 2.633807e-38
-4.650000e+00 6.913837e-39
-4.600000e+00 -7.735059e-38
-4.550000e+00 -1.685646e-37
-4.500000e+00 -6.046557e-38
-4.450000e+00 4.382170e-37
-4.400000e+00 1.024512e-36
-4.350000e+00 5.463685e-37
-4.300000e+00 -2.170747e-36
-4.250000e+00 -5.773261e-36
-4.200000e+00 -4.272662e-36
-4.150000e+00 9.234468e-36
-4.100000e+00 2.983348e-35
-4.050000e+00 2.877266e-35
-4.000000e+00 -3.194676e-35
-3.950000e+00 -1.402765e-34
-3.900000e+00 -1.695744e-34
-3.850000e+00 7.400150e-35
-3.800000e+00 5.951712e-34
-3.750000e+00 8.865082e-34
-3.700000e+00 3.592536e-35
-3.650000e+00 -2.250302e-33
-3.600000e+00 -4.147781e-33
-3.550000e+00 -1.707724e-33
-3.500000e+00 7.402154e-33
-3.450000e+00 1.744970e-32
-3.400000e+00 1.274099e-32
-3.350000e+00 -2.000538e-32
-3.300000e+00 -6.601885e-32
-3.250000e+00 -6.826002e-32
-3.200000e+00 3.644968e-32
-3.150000e+00 2.233068e-31
-3.100000e+00 3.041213e-31
-3.050000e+00 1.528983e-32
-3.000000e+00 -6.643839e-31
-2.950000e+00 -1.179426e-30
-2.900000e+00 -5.454371e-31
-2.850000e+00 1.670609e-30
-2.800000e+00 4.046820e-30
-2.750000e+00 3.267249e-30
-2.700000e+00 -3.152833e-30
-2.650000e+00 -1.230042e-29
-2.600000e+00 -1.410444e-29
-2.550000e+00 2.020409e-30
-2.500000e+00 3.268579e-29
-2.450000e+00 5.056409e-29
-2.400000e+00 1.767303e-29
-2.350000e+00 -7.299036e-29
-2.300000e+00 -1.567415e-28
-2.250000e+00 -1.142243e-28
-2.200000e+00 1.210582e-28
-2.150000e+00 4.234722e-28
-2.100000e+00 4.607627e-28
-2.050000e+00 -6.133753e-29
-2.000000e+00 -9.820158e-28
-1.950000e+00 -1.485799e-27
-1.900000e+00 -5.692578e-28
-1.850000e+00 1.850199e-27
-1.800000e+00 4.049502e-27
-1.750000e+00 3.141169e-27
-1.700000e+00 -2.314563e-27
-1.650000e+00 -9.385859e-27
-1.600000e+00 -1.088553e-26
-1.550000e+00 -7.332549e-28
-1.500000e+00 1.795510e-26
-1.450000e+00 2.974275e-26
-1.400000e+00 1.604583e-26
-1.350000e+00 -2.548595e-26
-1.300000e+00 -6.701863e-26
-1.250000e+00 -6.197121e-26
-1.200000e+00 1.447772e-26
-1.150000e+00 1.234531e-25
-1.100000e+00 1.660152e-25
-1.050000e+00 5.651049e-26
-1.000000e+00 -1.750403e-25
-9.499998e-01 -3.495755e-25
-9.000001e-01 -2.518398e-25
-8.499999e-01 1.545580e-25
-7.999997e-01 5.940777e-25
-7.500000e-01 6.211161e-25
-6.999998e-01 2.298807e-26
-6.500001e-01 -8.338278e-25
-5.999999e-01 -1.135841e-24
-5.499997e-01 -3.281227e-25
-5.000000e-01 1.125186e-24
-4.499998e-01 1.785674e-24
-4.000001e-01 4.699069e-25
-3.499999e-01 -2.154712e-24
-2.999997e-01 -3.329003e-24
-2.500000e-01 -4.123695e-25
-1.999998e-01 5.656544e-24
-1.500001e-01 9.084127e-24
-9.999990e-02 3.076928e-24
-4.999971e-02 -1.247078e-23
0.000000e+00 -2.605344e-23
5.000019e-02 -1.989501e-23
1.000004e-01 1.400413e-23
1.500006e-01 5.836129e-23
1.999998e-01 7.294028e-23
2.500000e-01 2.274864e-23
3.000002e-01 -8.273066e-23
3.500004e-01 -1.735602e-22
4.000006e-01 -1.550060e-22
4.499998e-01 1.440047e-23
5.000000e-01 2.578886e-22
5.500002e-01 3.966463e-22
6.000004e-01 2.670060e-22
6.500006e-01 -1.291141e-22
6.999998e-01 -5.659851e-22
7.500000e-01 -7.139991e-22
8.000002e-01 -3.880760e-22
8.500004e-01 2.617601e-22
9.000006e-01 8.099243e-22
9.499998e-01 8.791320e-22
1.000000e+00 4.877236e-22
1.050000e+00 7.216456e-23
1.100000e+00 4.510607e-23
1.150001e+00 1.976780e-22
1.200000e+00 -4.094002e-22
1.250000e+00 -2.605302e-21
1.300000e+00 -5.655307e-21
1.350000e+00 -6.470697e-21
1.400001e+00 -9.683898e-22
1.450000e+00 1.213401e-20
1.500000e+00 2.714544e-20
1.550000e+00 3.087452e-20
1.600000e+00 9.215425e-21
1.650001e+00 -3.996906e-20
1.700000e+00 -9.506460e-20
1.750000e+00 -1.118106e-19
1.800000e+00 -4.577234e-20
1.850000e+00 1.086113e-19
1.900001e+00 2.852523e-19
1.950000e+00 3.527684e-19
2.000000e+00 1.807249e-19
2.050000e+00 -2.513021e-19
2.100000e+00 -7.659691e-19
2.150001e+00 -1.007645e-18
2.200000e+00 -6.181672e-19
2.250000e+00 4.809649e-19
2.300000e+00 1.864196e-18
2.350000e+00 2.644896e-18
2.400001e+00 1.898397e-18
2.450000e+00 -6.583602e-19
2.500000e+00 -4.114816e-18
2.550000e+00 -6.423224e-18
2.600000e+00 -5.324494e-18
2.650001e+00 1.144744e-19
2.700000e+00 8.180520e-18
2.750000e+00 1.446746e-17
2.800000e+00 1.372803e-17
2.850000e+00 3.178343e-18
2.900001e+00 -1.442182e-17
2.950000e+00 -3.018142e-17
3.000000e+00 -3.250928e-17
3.050000e+00 -1.394670e-17
3.100000e+00 2.187893e-17
3.150001e+00 5.799923e-17
3.200000e+00 7.018181e-17
3.250000e+00 4.065886e-17
3.300000e+00 -2.694163e-17
3.350000e+00 -1.015946e-16
3.400001e+00 -1.358451e-16
3.450000e+00 -9.279074e-17
3.500000e+00 2.413454e-17
3.550000e+00 1.594086e-16
3.600000e+00 2.274492e-16
3.650001e+00 1.646339e-16
3.700000e+00 -1.735617e-17
3.750000e+00 -2.179724e-16
3.800000e+00 -2.992953e-16
3.850000e+00 -1.843757e-16
3.900001e+00 6.250769e-17
3.950000e+00 2.497116e-16
4.000000e+00 1.915880e-16
4.050000e+00 -1.098068e-16
4.100000e+00 -3.834346e-16
4.150001e+00 -2.360226e-16
4.200000e+00 4.961509e-16
4.250000e+00 1.421436e-15
4.300000e+00 1.627413e-15
4.350000e+00 2.575898e-16
4.400001e+00 -2.595043e-15
4.450000e+00 -5.329321e-15
4.500000e+00 -5.332409e-15
4.550000e+00 -7.065632e-16
4.600000e+00 7.601243e-15
4.650001e+00 1.491022e-14
4.700000e+00 1.461760e-14
4.750000e+00 2.632205e-15
4.800000e+00 -1.791303e-14
4.850000e+00 -3.543580e-14
4.900001e+00 -3.490772e-14
4.950000e+00 -8.042430e-15
5.000000e+00 3.707604e-14
5.050000e+00 7.483949e-14
5.100000e+00 7.409731e-14
5.150001e+00 1.953157e-14
5.200000e+00 -7.028976e-14
5.250000e+00 -1.434919e-13
5.300000e+00 -1.409868e-13
5.350000e+00 -3.783599e-14
5.400001e+00 1.260259e-13
5.450000e+00 2.529277e-13
5.500000e+00 2.403364e-13
5.550000e+00 5.502317e-14
5.600000e+00 -2.205549e-13
5.650001e+00 -4.138141e-13
5.700000e+00 -3.630354e-13
5.750000e+00 -4.065745e-14
5.800000e+00 3.879993e-13
5.850000e+00 6.346689e-13
5.900001e+00 4.713748e-13
5.950000e+00 -8.033344e-14
6.000000e+00 -6.979564e-13
6.050000e+00 -9.238903e-13
6.100000e+00 -4.824891e-13
6.150001e+00 4.548630e-13
6.200000e+00 1.278645e-12
6.250000e+00 1.296445e-12
6.300000e+00 2.565105e-13
6.350000e+00 -1.322785e-12
6.400001e+00 -2.333863e-12
6.450000e+00 -1.779676e-12
6.500000e+00 4.039890e-13
6.550000e+00 3.012200e-12
6.600000e+00 4.127278e-12
6.650001e+00 2.396973e-12
6.700000e+00 -1.746945e-12
6.750000e+00 -5.889088e-12
6.800000e+00 -6.895128e-12
6.850000e+00 -3.085424e-12
6.900001e+00 4.087353e-12
6.950000e+00 1.026583e-11
7.000000e+00 1.065990e-11
7.050000e+00 3.491903e-12
7.100000e+00 -7.919433e-12
7.150001e+00 -1.633962e-11
7.200000e+00 -1.499174e-11
7.250000e+00 -2.642857e-12
7.300000e+00 1.420536e-11
7.350000e+00 2.432473e-11
7.400001e+00 1.893587e-11
7.450000e+00 -1.313415e-12
7.500000e+00 -2.476686e-11
7.550000e+00 -3.492867e-11
7.600000e+00 -2.151585e-11
7.650001e+00 1.069496e-11
7.700000e+00 4.218659e-11
7.750000e+00 4.984924e-11
7.800000e+00 2.301088e-11
7.850000e+00 -2.635857e-11
7.900001e+00 -6.781273e-11
7.950000e+00 -7.066429e-11
8.000000e+00 -2.570798e-11
8.050001e+00 4.458392e-11
8.100000e+00 9.667641e-11
8.150000e+00 9.318681e-11
8.200001e+00 2.979618e-11
8.250000e+00 -5.749027e-11
8.300001e+00 -1.127808e-10
8.350000e+00 -9.752547e-11
8.400000e+00 -1.976684e-11
8.450001e+00 6.706466e-11
8.500000e+00 9.902474e-11
8.550001e+00 4.884377e-11
8.600000e+00 -4.829444e-11
8.650000e+00 -1.131252e-10
8.700001e+00 -7.778736e-11
8.750000e+00 5.781503e-11
8.800001e+00 2.115875e-10
8.850000e+00 2.649770e-10
8.900000e+00 1.448258e-10
8.950001e+00 -1.136866e-10
9.000000e+00 -3.727484e-10
9.050001e+00 -4.726893e-10
9.100000e+00 -3.394718e-10
9.150000e+00 -4.362972e-11
9.200001e+00 2.392113e-10
9.250000e+00 3.494150e-10
9.300001e+00 2.650625e-10
9.350000e+00 1.305313e-10
9.400000e+00 1.544145e-10
9.450001e+00 4.333696e-10
9.500000e+00 8.257716e-10
9.550001e+00 9.846487e-10
9.600000e+00 5.606531e-10
9.650000e+00 -5.377944e-10
9.700001e+00 -2.001665e-09
9.750000e+00 -3.215579e-09
9.800001e+00 -3.560876e-09
9.850000e+00 -2.751601e-09
9.900000e+00 -9.865648e-10
9.950001e+00 1.191526e-09
1.000000e+01 3.242587e-09
1.005000e+01 4.941059e-09
1.010000e+01 6.419262e-09
1.015000e+01 7.887100e-09
1.020000e+01 9.213124e-09
1.025000e+01 9.683910e-09
1.030000e+01 8.171910e-09
1.035000e+01 3.672412e-09
1.040000e+01 -4.108348e-09
1.045000e+01 -1.451763e-08
1.050000e+01 -2.628458e-08
1.055000e+01 -3.825824e-08
1.060000e+01 -5.010295e-08
1.065000e+01 -6.248859e-08
1.070000e+01 -7.662583e-08
1.075000e+01 -9.344325e-08
1.080000e+01 -1.129802e-07
1.085000e+01 -1.344628e-07
1.090000e+01 -1.570832e-07
1.095000e+01 -1.810010e-07
1.100000e+01 -2.078698e-07
1.105000e+01 -2.404597e-07
1.110000e+01 -2.815199e-07
1.115000e+01 -3.325638e-07
1.120000e+01 -3.933648e-07
1.125000e+01 -4.625382e-07
1.130000e+01 -5.388952e-07
1.135000e+01 -6.227609e-07
1.140000e+01 -7.164602e-07
1.145000e+01 -8.237249e-07
1.150000e+01 -9.484735e-07
1.155000e+01 -1.093793e-06
1.160000e+01 -1.261758e-06
1.165000e+01 -1.454107e-06
1.170000e+01 -1.673183e-06
1.175000e+01 -1.922410e-06
1.180000e+01 -2.205989e-06
1.185000e+01 -2.528154e-06
1.190000e+01 -2.892726e-06
1.195000e+01 -3.303503e-06
1.200000e+01 -3.765350e-06
1.205000e+01 -4.285226e-06
1.210000e+01 -4.872270e-06
1.215000e+01 -5.536683e-06
1.220000e+01 -6.288009e-06
1.225000e+01 -7.134057e-06
1.230000e+01 -8.081366e-06
1.235000e+01 -9.137216e-06
1.240000e+01 -1.031198e-05
1.245000e+01 -1.162039e-05
1.250000e+01 -1.308078e-05
1.255000e+01 -1.471254e-05
1.260000e+01 -1.653367e-05
1.265000e+01 -1.855967e-05
1.270000e+01 -2.080491e-05
1.275000e+01 -2.328541e-05
1.280000e+01 -2.602135e-05
1.285000e+01 -2.903780e-05
1.290000e+01 -3.236317e-05
1.295000e+01 -3.602647e-05
1.300000e+01 -4.005576e-05
1.305000e+01 -4.447820e-05
1.310000e+01 -4.932222e-05
1.315000e+01 -5.461984e-05
1.320000e+01 -6.040721e-05
1.325000e+01 -6.672311e-05
1.330000e+01 -7.360591e-05
1.335000e+01 -8.109136e-05
1.340000e+01 -8.921307e-05
1.345000e+01 -9.800557e-05
1.350000e+01 -1.075082e-04
1.355000e+01 -1.177674e-04
1.360000e+01 -1.288354e-04
1.365000e+01 -1.407653e-04
1.370000e+01 -1.536062e-04
1.375000e+01 -1.673995e-04
1.380000e+01 -1.821788e-04
1.385000e+01 -1.979747e-04
1.390000e+01 -2.148197e-04
1.395000e+01 -2.327516e-04
1.400000e+01 -2.518139e-04
1.405000e+01 -2.720524e-04
1.410000e+01 -2.935099e-04
1.415000e+01 -3.162212e-04
1.420000e+01 -3.402110e-04
1.425000e+01 -3.654940e-04
1.430000e+01 -3.920769e-04
1.435000e+01 -4.199603e-04
1.440000e+01 -4.491414e-04
1.445000e+01 -4.796142e-04
1.450000e+01 -5.113693e-04
1.455000e+01 -5.443922e-04
1.460000e+01 -5.786610e-04
1.465000e+01 -6.141419e-04
1.470000e+01 -6.507874e-04
1.475000e+01 -6.885342e-04
1.480000e+01 -7.273032e-04
1.485000e+01 -7.670026e-04
1.490000e+01 -8.075297e-04
1.495000e+01 -8.487734e-04
1.500000e+01 -8.906133e-04
1.505000e+01 -9.329183e-04
1.510000e+01 -9.755436e-04
1.515000e+01 -1.018329e-03
1.520000e+01 -1.061097e-03
1.525000e+01 -1.103654e-03
1.530000e+01 -1.145798e-03
1.535000e+01 -1.187311e-03
1.540000e+01 -1.227963e-03
1.545000e+01 -1.267515e-03
1.550000e+01 -1.305715e-03
1.555000e+01 -1.342299e-03
1.560000e+01 -1.376998e-03
1.565000e+01 -1.409536e-03
1.570000e+01 -1.439634e-03
1.575000e+01 -1.467008e-03
1.580000e+01 -1.491374e-03
1.585000e+01 -1.512440e-03
1.590000e+01 -1.529914e-03
1.595000e+01 -1.543505e-03
1.600000e+01 -1.552924e-03
1.605000e+01 -1.557894e-03
1.610000e+01 -1.558150e-03
1.615000e+01 -1.553443e-03
1.620000e+01 -1.543537e-03
1.625000e+01 -1.528213e-03
1.630000e+01 -1.507269e-03
1.635000e+01 -1.480517e-03
1.640000e+01 -1.447794e-03
1.645000e+01 -1.408960e-03
1.650000e+01 -1.363907e-03
1.655000e+01 -1.312559e-03
1.660000e+01 -1.254878e-03
1.665000e+01 -1.190855e-03
1.670000e+01 -1.120520e-03
1.675000e+01 -1.043934e-03
1.680000e+01 -9.611907e-04
1.685000e+01 -8.724217e-04
1.690000e+01 -7.777946e-04
1.695000e+01 -6.775194e-04
1.700000e+01 -5.718487e-04
1.705000e+01 -4.610773e-04
1.710000e+01 -3.455406e-04
1.715000e+01 -2.256092e-04
1.720000e+01 -1.016869e-04
1.725000e+01 2.579228e-05
1.730000e+01 1.563656e-04
1.735000e+01 2.895409e-04
1.740000e+01 4.247980e-04
1.745000e+01 5.615886e-04
1.750000e+01 6.993395e-04
1.755000e+01 8.374577e-04
1.760000e+01 9.753357e-04
1.765000e+01 1.112355e-03
1.770000e+01 1.247895e-03
1.775000e+01 1.381330e-03
1.780000e+01 1.512042e-03
1.785000e+01 1.639413e-03
1.790000e+01 1.762834e-03
1.795000e+01 1.881713e-03
1.800000e+01 1.995470e-03
1.805000e+01 2.103551e-03
1.810000e+01 2.205429e-03
1.815000e+01 2.300604e-03
1.820000e+01 2.388610e-03
1.825000e+01 2.469019e-03
1.830000e+01 2.541438e-03
1.835000e+01 2.605517e-03
1.840000e+01 2.660953e-03
1.845000e+01 2.707492e-03
1.850000e+01 2.744930e-03
1.855000e+01 2.773114e-03
1.860000e+01 2.791943e-03
1.865000e+01 2.801362e-03
1.870000e+01 2.801374e-03
1.875000e+01 2.792028e-03
1.880000e+01 2.773428e-03
1.885000e+01 2.745728e-03
1.890000e+01 2.709132e-03
1.895000e+01 2.663893e-03
1.900000e+01 2.610308e-03
1.905000e+01 2.548713e-03
1.910000e+01 2.479487e-03
1.915000e+01 2.403045e-03
1.920000e+01 2.319838e-03
1.925000e+01 2.230346e-03
1.930000e+01 2.135083e-03
1.935000e+01 2.034582e-03
1.940000e+01 1.929394e-03
1.945000e+01 1.820084e-03
1.950000e+01 1.707225e-03
1.955000e+01 1.591396e-03
1.960000e+01 1.473177e-03
1.965000e+01 1.353153e-03
1.970000e+01 1.231903e-03
1.975000e+01 1.110003e-03
1.980000e+01 9.880175e-04
1.985000e+01 8.664933e-04
1.990000e+01 7.459583e-04
1.995000e+01 6.269135e-04
2.000000e+01 5.098350e-04
2.005000e+01 3.951725e-04
2.010000e+01 2.833496e-04
2.015000e+01 1.747617e-04
2.020000e+01 6.977442e-05
2.025000e+01 -3.128047e-05
2.030000e+01 -1.281069e-04
2.035000e+01 -2.204458e-04
2.040000e+01 -3.080748e-04
2.045000e+01 -3.908065e-04
2.050000e+01 -4.684870e-04
2.055000e+01 -5.409940e-04
2.060000e+01 -6.082389e-04
2.065000e+01 -6.701656e-04
2.070000e+01 -7.267509e-04
2.075000e+01 -7.780037e-04
2.080000e+01 -8.239627e-04
2.085000e+01 -8.646927e-04
2.090000e+01 -9.002842e-04
2.095000e+01 -9.308502e-04
2.100000e+01 -9.565264e-04
2.105000e+01 -9.774687e-04
2.110000e+01 -9.938509e-04
2.115000e+01 -1.005861e-03
2.120000e+01 -1.013698e-03
2.125000e+01 -1.017570e-03
2.130000e+01 -1.017694e-03
2.135000e+01 -1.014297e-03
2.140000e+01 -1.007614e-03
2.145000e+01 -9.978842e-04
2.150000e+01 -9.853524e-04
2.155000e+01 -9.702624e-04
2.160000e+01 -9.528517e-04
2.165000e+01 -9.333516e-04
2.170000e+01 -9.119881e-04
2.175000e+01 -8.889809e-04
2.180000e+01 -8.645451e-04
2.185000e+01 -8.388914e-04
2.190000e+01 -8.122244e-04
2.195000e+01 -7.847406e-04
2.200000e+01 -7.566269e-04
2.205000e+01 -7.280573e-04
2.210000e+01 -6.991936e-04
2.215000e+01 -6.701837e-04
2.220000e+01 -6.411662e-04
2.225000e+01 -6.122687e-04
2.230000e+01 -5.836097e-04
2.235000e+01 -5.552986e-04
2.240000e+01 -5.274343e-04
2.245000e+01 -5.001049e-04
2.250000e+01 -4.733866e-04
2.255000e+01 -4.473453e-04
2.260000e+01 -4.220374e-04
2.265000e+01 -3.975109e-04
2.270000e+01 -3.738062e-04
2.275000e+01 -3.509551e-04
2.280000e+01 -3.289820e-04
2.285000e+01 -3.079033e-04
2.290000e+01 -2.877293e-04
2.295000e+01 -2.684647e-04
2.300000e+01 -2.501095e-04
2.305000e+01 -2.326593e-04
2.310000e+01 -2.161052e-04
2.315000e+01 -2.004338e-04
2.320000e+01 -1.856280e-04
2.325000e+01 -1.716671e-04
2.330000e+01 -1.585276e-04
2.335000e+01 -1.461838e-04
2.340000e+01 -1.346082e-04
2.345000e+01 -1.237729e-04
2.350000e+01 -1.136493e-04
2.355000e+01 -1.042083e-04
2.360000e+01 -9.541991e-05
2.365000e+01 -8.725297e-05
2.370000e+01 -7.967566e-05
2.375000e+01 -7.265634e-05
2.380000e+01 -6.616449e-05
2.385000e+01 -6.017092e-05
2.390000e+01 -5.464746e-05
2.395000e+01 -4.956620e-05
2.400000e+01 -4.489900e-05
2.405000e+01 -4.061786e-05
2.410000e+01 -3.669576e-05
2.415000e+01 -3.310726e-05
2.420000e+01 -2.982872e-05
2.425000e+01 -2.683817e-05
2.430000e+01 -2.411480e-05
2.435000e+01 -2.163910e-05
2.440000e+01 -1.939292e-05
2.445000e+01 -1.735929e-05
2.450000e+01 -1.552189e-05
2.455000e+01 -1.386432e-05
2.460000e+01 -1.237005e-05
2.465000e+01 -1.102306e-05
2.470000e+01 -9.808983e-06
2.475000e+01 -8.715740e-06
2.480000e+01 -7.733226e-06
2.485000e+01 -6.852243e-06
2.490000e+01 -6.063585e-06
2.495000e+01 -5.358000e-06
2.500000e+01 -4.726987e-06
2.505000e+01 -4.163619e-06
2.510000e+01 -3.662588e-06
2.515000e+01 -3.219313e-06
2.520000e+01 -2.828798e-06
2.525000e+01 -2.485101e-06
2.530000e+01 -2.181739e-06
2.535000e+01 -1.912593e-06
2.540000e+01 -1.672597e-06
2.545000e+01 -1.457873e-06
2.550000e+01 -1.265551e-06
2.555000e+01 -1.093727e-06
2.560000e+01 -9.415950e-07
2.565000e+01 -8.093244e-07
2.570000e+01 -6.972778e-07
2.575000e+01 -6.047622e-07
2.580000e+01 -5.291620e-07
2.585000e+01 -4.662635e-07
2.590000e+01 -4.117486e-07
2.595000e+01 -3.628554e-07
2.600000e+01 -3.189545e-07
2.605000e+01 -2.806039e-07
2.610000e+01 -2.478542e-07
2.615000e+01 -2.191889e-07
2.620000e+01 -1.919382e-07
2.625000e+01 -1.637665e-07
2.630000e+01 -1.339612e-07
2.635000e+01 -1.034727e-07
2.640000e+01 -7.373506e-08
2.645000e+01 -4.527335e-08
2.650000e+01 -1.716147e-08
2.655000e+01 1.243574e-08
2.660000e+01 4.530742e-08
2.665000e+01 8.268633e-08
2.670000e+01 1.254330e-07
2.675000e+01 1.744310e-07
2.680000e+01 2.305837e-07
2.685000e+01 2.943572e-07
2.690000e+01 3.654561e-07
2.695000e+01 4.432391e-07
2.700000e+01 5.278144e-07
2.705000e+01 6.210375e-07
2.710000e+01 7.265643e-07
2.715000e+01 8.488524e-07
2.720000e+01 9.918764e-07
2.725000e+01 1.158571e-06
2.730000e+01 1.351376e-06
2.735000e+01 1.573319e-06
2.740000e+01 1.828662e-06
2.745000e+01 2.122614e-06
2.750000e+01 2.460554e-06
2.755000e+01 2.847648e-06
2.760000e+01 3.289426e-06
2.765000e+01 3.792962e-06
2.770000e+01 4.367723e-06
2.775000e+01 5.025356e-06
2.780000e+01 5.778556e-06
2.785000e+01 6.639923e-06
2.790000e+01 7.621644e-06
2.795000e+01 8.736257e-06
2.800000e+01 9.997932e-06
2.805000e+01 1.142350e-05
2.810000e+01 1.303278e-05
2.815000e+01 1.484843e-05
2.820000e+01 1.689556e-05
2.825000e+01 1.920158e-05
2.830000e+01 2.179599e-05
2.835000e+01 2.471026e-05
2.840000e+01 2.797789e-05
2.845000e+01 3.163490e-05
2.850000e+01 3.572083e-05
2.855000e+01 4.027996e-05
2.860000e+01 4.536175e-05
2.865000e+01 5.102052e-05
2.870000e+01 5.731430e-05
2.875000e+01 6.430370e-05
2.880000e+01 7.205219e-05
2.885000e+01 8.062696e-05
2.890000e+01 9.010070e-05
2.895000e+01 1.005526e-04
2.900000e+01 1.120681e-04
2.905000e+01 1.247385e-04
2.910000e+01 1.386592e-04
2.915000e+01 1.539300e-04
2.920000e+01 1.706554e-04
2.925000e+01 1.889445e-04
2.930000e+01 2.089112e-04
2.935000e+01 2.306741e-04
2.940000e+01 2.543557e-04
2.945000e+01 2.800831e-04
