-8.000000e+00 0.000000e+00
-7.950000e+00 0.000000e+00
-7.900000e+00 0.000000e+00
-7.850000e+00 0.000000e+00
-7.800000e+00 0.000000e+00
-7.750000e+00 0.000000e+00
-7.700000e+00 0.000000e+00
-7.650000e+00 0.000000e+00
-7.600000e+00 0.000000e+00
-7.550000e+00 0.000000e+00
-7.500000e+00 0.000000e+00
-7.450000e+00 0.000000e+00
-7.400000e+00 0.000000e+00
-7.350000e+00 0.000000e+00
-7.300000e+00 0.000000e+00
-7.250000e+00 0.000000e+00
-7.200000e+00 0.000000e+00
-7.150000e+00 0.000000e+00
-7.100000e+00 0.000000e+00
-7.050000e+00 0.000000e+00
-7.000000e+00 0.000000e+00
-6.950000e+00 0.000000e+00
-6.900000e+00 0.000000e+00
-6.850000e+00 0.000000e+00
-6.800000e+00 0.000000e+00
-6.750000e+00 0.000000e+00
-6.700000e+00 0.000000e+00
-6.650000e+00 0.000000e+00
-6.600000e+00 0.000000e+00
-6.550000e+00 0.000000e+00
-6.500000e+00 0.000000e+00
-6.450000e+00 0.000000e+00
-6.400000e+00 0.000000e+00
-6.350000e+00 0.000000e+00
-6.300000e+00 0.000000e+00
-6.250000e+00 0.000000e+00
-6.200000e+00 0.000000e+00
-6.150000e+00 0.000000e+00
-6.100000e+00 0.000000e+00
-6.050000e+00 -1.401298e-45
-6.000000e+00 5.605194e-45
-5.950000e+00 1.261169e-44
-5.900000e+00 -1.541428e-44
-5.850000e+00 -9.248570e-44
-5.800000e+00 -1.485376e-43
-5.750000e+00 -4.624285e-44
-5.700000e+00 3.573311e-43
-5.650000e+00 8.688050e-43
-5.600000e+00 8.435817e-43
-5.550000e+00 -6.165713e-43
-5.500000e+00 -3.765289e-42
-5.450000e+00 -6.430559e-42
-5.400000e+00 -3.421971e-42
-5.350000e+00 1.015381e-41
-5.300000e+00 3.087761e-41
-5.250000e+00 3.952923e-41
-5.200000e+00 4.593456e-42
-5.150000e+00 -9.459886e-41
-5.100000e+00 -2.256006e-40
-5.050000e+00 -2.508534e-40
-5.000000e+00 8.856066e-41
-4.950000e+00 1.004134e-39
-4.900000e+00 2.075819e-39
-4.850000e+00 1.419748e-39
-4.800000e+00 -3.890660e-39
-4.750000e+00 -1.348011e-38
-4.700000e+00 -1.574620e-38
-4.650000e+00 1.270794e-38
-4.600000e+00 7.965246e-38
-4.550000e+00 1.202874e-37
-4.500000e+00 -2.100788e-38
-4.450000e+00 -4.356940e-37
-4.400000e+00 -7.947289e-37
-4.350000e+00 -1.714855e-37
-4.300000e+00 2.166521e-36
-4.250000e+00 4.733232e-36
-4.200000e+00 2.492831e-36
-4.150000e+00 -9.509096e-36
-4.100000e+00 -2.556240e-35
-4.050000e+00 -2.060703e-35
-4.000000e+00 3.509623e-35
-3.950000e+00 1.248778e-34
-3.900000e+00 1.348621e-34
-3.850000e+00 -9.602339e-35
-3.800000e+00 -5.485489e-34
-3.750000e+00 -7.534616e-34
-3.700000e+00 8.189025e-35
-3.650000e+00 2.142654e-33
-3.600000e+00 3.698062e-33
-3.550000e+00 1.193568e-33
-3.500000e+00 -7.274642e-33
-3.450000e+00 -1.614133e-32
-3.400000e+00 -1.087910e-32
-3.350000e+00 2.033148e-32
-3.300000e+00 6.285261e-32
-3.250000e+00 6.273391e-32
-3.200000e+00 -3.895688e-32
-3.150000e+00 -2.172251e-31
-3.100000e+00 -2.914225e-31
-3.050000e+00 -8.106731e-33
-3.000000e+00 6.548187e-31
-2.950000e+00 1.161026e-30
-2.900000e+00 5.449815e-31
-2.850000e+00 -1.645267e-30
-2.800000e+00 -4.050229e-30
-2.750000e+00 -3.380349e-30
-2.700000e+00 2.980539e-30
-2.650000e+00 1.238619e-29
-2.600000e+00 1.482713e-29
-2.550000e+00 -9.010607e-31
-2.500000e+00 -3.262155e-29
-2.450000e+00 -5.348909e-29
-2.400000e+00 -2.329941e-29
-2.350000e+00 7.000391e-29
-2.300000e+00 1.651601e-28
-2.250000e+00 1.367874e-28
-2.200000e+00 -1.000515e-28
-2.150000e+00 -4.378967e-28
-2.100000e+00 -5.343682e-28
-2.050000e+00 -3.741219e-29
-2.000000e+00 9.693176e-28
-1.950000e+00 1.677796e-27
-1.900000e+00 9.329223e-28
-1.850000e+00 -1.621595e-27
-1.800000e+00 -4.411395e-27
-1.750000e+00 -4.237727e-27
-1.700000e+00 1.165425e-27
-1.650000e+00 9.626524e-27
-1.600000e+00 1.358556e-26
-1.550000e+00 4.844176e-27
-1.500000e+00 -1.627022e-26
-1.450000e+00 -3.484331e-26
-1.400000e+00 -2.782083e-26
-1.350000e+00 1.547527e-26
-1.300000e+00 7.244135e-26
-1.250000e+00 8.953235e-26
-1.200000e+00 2.098758e-26
-1.150000e+00 -1.154413e-25
-1.100000e+00 -2.168982e-25
-1.050000e+00 -1.535214e-25
-1.000000e+00 1.082596e-25
-9.499998e-01 4.123416e-25
-9.000001e-01 4.683055e-25
-8.499999e-01 8.139098e-26
-7.999997e-01 -5.913124e-25
-7.500000e-01 -1.017129e-24
-6.999998e-01 -6.456302e-25
-6.500001e-01 5.319157e-25
-5.999999e-01 1.709547e-24
-5.499997e-01 1.710852e-24
-5.000000e-01 3.283929e-26
-4.499998e-01 -2.324618e-24
-4.000001e-01 -3.225634e-24
-3.499999e-01 -1.140005e-24
-2.999997e-01 2.948359e-24
-2.500000e-01 5.436885e-24
-1.999998e-01 2.788873e-24
-1.500001e-01 -4.531223e-24
-9.999990e-02 -1.051387e-23
-4.999971e-02 -7.329245e-24
0.000000e+00 7.003281e-24
5.000019e-02 2.317369e-23
1.000004e-01 2.426379e-23
1.500006e-01 -6.382683e-25
1.999998e-01 -4.187219e-23
2.500000e-01 -6.788450e-23
3.000002e-01 -4.472796e-23
3.500004e-01 3.300334e-23
4.000006e-01 1.241265e-22
4.499998e-01 1.576050e-22
5.000000e-01 8.184113e-23
5.500002e-01 -8.634103e-23
6.000004e-01 -2.559548e-22
6.500006e-01 -3.150682e-22
6.999998e-01 -2.084532e-22
7.500000e-01 2.549937e-23
8.000002e-01 2.962638e-22
8.500004e-01 5.410637e-22
9.000006e-01 7.424409e-22
9.499998e-01 8.213661e-22
1.000000e+00 4.947308e-22
1.050000e+00 -6.640270e-22
1.100000e+00 -2.767897e-21
1.150001e+00 -4.920361e-21
1.200000e+00 -4.932532e-21
1.250000e+00 -2.835465e-22
1.300000e+00 9.468367e-21
1.350000e+00 2.004546e-20
1.400001e+00 2.218149e-20
1.450000e+00 6.161598e-21
1.500000e+00 -2.918940e-20
1.550000e+00 -6.814463e-20
1.600000e+00 -7.887305e-20
1.650001e+00 -2.982547e-20
1.700000e+00 8.164314e-20
1.750000e+00 2.055404e-19
1.800000e+00 2.452880e-19
1.850000e+00 1.089490e-19
1.900001e+00 -2.087444e-19
1.950000e+00 -5.645391e-19
2.000000e+00 -6.912931e-19
2.050000e+00 -3.426146e-19
2.100000e+00 4.908138e-19
2.150001e+00 1.431320e-18
2.200000e+00 1.794378e-18
2.250000e+00 9.651844e-19
2.300000e+00 -1.069491e-18
2.350000e+00 -3.380771e-18
2.400001e+00 -4.326880e-18
2.450000e+00 -2.470126e-18
2.500000e+00 2.192771e-18
2.550000e+00 7.503917e-18
2.600000e+00 9.747446e-18
2.650001e+00 5.762222e-18
2.700000e+00 -4.361316e-18
2.750000e+00 -1.582729e-17
2.800000e+00 -2.063544e-17
2.850000e+00 -1.223382e-17
2.900001e+00 8.843971e-18
2.950000e+00 3.226343e-17
3.000000e+00 4.147483e-17
3.050000e+00 2.359808e-17
3.100000e+00 -1.924124e-17
3.150001e+00 -6.516376e-17
3.200000e+00 -8.078667e-17
3.250000e+00 -4.167627e-17
3.300000e+00 4.538468e-17
3.350000e+00 1.343738e-16
3.400001e+00 1.582110e-16
3.450000e+00 7.041250e-17
3.500000e+00 -1.110702e-16
3.550000e+00 -2.894195e-16
3.600000e+00 -3.268625e-16
3.650001e+00 -1.291941e-16
3.700000e+00 2.647832e-16
3.750000e+00 6.513788e-16
3.800000e+00 7.355142e-16
3.850000e+00 3.035608e-16
3.900001e+00 -5.825419e-16
3.950000e+00 -1.497113e-15
4.000000e+00 -1.779716e-15
4.050000e+00 -8.938166e-16
4.100000e+00 1.125242e-15
4.150001e+00 3.403673e-15
4.200000e+00 4.423685e-15
4.250000e+00 2.778195e-15
4.300000e+00 -1.759217e-15
4.350000e+00 -7.448877e-15
4.400001e+00 -1.080141e-14
4.450000e+00 -8.175302e-15
4.500000e+00 1.667634e-15
4.550000e+00 1.540551e-14
4.600000e+00 2.519414e-14
4.650001e+00 2.203020e-14
4.700000e+00 1.696015e-15
4.750000e+00 -2.977384e-14
4.800000e+00 -5.539019e-14
4.850000e+00 -5.417739e-14
4.900001e+00 -1.443903e-14
4.950000e+00 5.342947e-14
5.000000e+00 1.142453e-13
5.050000e+00 1.221467e-13
5.100000e+00 4.878776e-14
5.150001e+00 -8.877674e-14
5.200000e+00 -2.210518e-13
5.250000e+00 -2.539220e-13
5.300000e+00 -1.255961e-13
5.350000e+00 1.368325e-13
5.400001e+00 4.023205e-13
5.450000e+00 4.892810e-13
5.500000e+00 2.748694e-13
5.550000e+00 -1.977930e-13
5.600000e+00 -6.921224e-13
5.650001e+00 -8.779759e-13
5.700000e+00 -5.312085e-13
5.750000e+00 2.761293e-13
5.800000e+00 1.133380e-12
5.850000e+00 1.473642e-12
5.900001e+00 9.209771e-13
5.950000e+00 -3.939975e-13
6.000000e+00 -1.782845e-12
6.050000e+00 -2.324259e-12
6.100000e+00 -1.440361e-12
6.150001e+00 6.146265e-13
6.200000e+00 2.721820e-12
6.250000e+00 3.462049e-12
6.300000e+00 2.028779e-12
6.350000e+00 -1.070070e-12
6.400001e+00 -4.068414e-12
6.450000e+00 -4.894138e-12
6.500000e+00 -2.547586e-12
6.550000e+00 1.975689e-12
6.600000e+00 5.972469e-12
6.650001e+00 6.583861e-12
6.700000e+00 2.771320e-12
6.750000e+00 -3.605072e-12
6.800000e+00 -8.555502e-12
6.850000e+00 -8.388372e-12
6.900001e+00 -2.375660e-12
6.950000e+00 6.213697e-12
7.000000e+00 1.175703e-11
7.050000e+00 9.895840e-12
7.100000e+00 8.606095e-13
7.150001e+00 -9.962585e-12
7.200000e+00 -1.511144e-11
7.250000e+00 -1.014008e-11
7.300000e+00 2.676946e-12
7.350000e+00 1.499506e-11
7.400001e+00 1.764952e-11
7.450000e+00 7.362328e-12
7.500000e+00 -9.870635e-12
7.550000e+00 -2.182356e-11
7.600000e+00 -1.832068e-11
7.650001e+00 6.141245e-13
7.700000e+00 2.295618e-11
7.750000e+00 3.173115e-11
7.800000e+00 1.713787e-11
7.850000e+00 -1.457694e-11
7.900001e+00 -4.283338e-11
7.950000e+00 -4.562141e-11
8.000000e+00 -1.579153e-11
8.050001e+00 3.100907e-11
8.100000e+00 6.418204e-11
8.150000e+00 5.850016e-11
8.200001e+00 1.354581e-11
8.250000e+00 -4.264594e-11
8.300001e+00 -7.101156e-11
8.350000e+00 -4.986277e-11
8.400000e+00 6.035992e-12
8.450001e+00 5.224813e-11
8.500000e+00 4.646242e-11
8.550001e+00 -1.547210e-11
8.600000e+00 -8.746466e-11
8.650000e+00 -9.991773e-11
8.700001e+00 -1.243128e-11
8.750000e+00 1.437032e-10
8.800001e+00 2.693123e-10
8.850000e+00 2.553860e-10
8.900000e+00 6.312890e-11
8.950001e+00 -2.299301e-10
9.000000e+00 -4.596042e-10
9.050001e+00 -4.737080e-10
9.100000e+00 -2.399731e-10
9.150000e+00 1.146525e-10
9.200001e+00 3.743359e-10
9.250000e+00 3.809464e-10
9.300001e+00 1.604066e-10
9.350000e+00 -7.030802e-11
9.400000e+00 -4.378620e-11
9.450001e+00 3.463712e-10
9.500000e+00 9.078885e-10
9.550001e+00 1.204781e-09
9.600000e+00 8.069458e-10
9.650000e+00 -4.024215e-10
9.700001e+00 -2.063162e-09
9.750000e+00 -3.453085e-09
9.800001e+00 -3.846160e-09
9.850000e+00 -2.910504e-09
9.900000e+00 -8.945703e-10
9.950001e+00 1.530161e-09
1.000000e+01 3.679074e-09
1.005000e+01 5.245794e-09
1.010000e+01 6.397664e-09
1.015000e+01 7.487790e-09
1.020000e+01 8.566953e-09
1.025000e+01 9.045865e-09
1.030000e+01 7.790773e-09
1.035000e+01 3.657234e-09
1.040000e+01 -3.847503e-09
1.045000e+01 -1.421272e-08
1.050000e+01 -2.615804e-08
1.055000e+01 -3.835569e-08
1.060000e+01 -5.020609e-08
1.065000e+01 -6.216622e-08
1.070000e+01 -7.540591e-08
1.075000e+01 -9.101645e-08
1.080000e+01 -1.093185e-07
1.085000e+01 -1.297762e-07
1.090000e+01 -1.516260e-07
1.095000e+01 -1.748258e-07
1.100000e+01 -2.006686e-07
1.105000e+01 -2.315859e-07
1.110000e+01 -2.701888e-07
1.115000e+01 -3.181213e-07
1.120000e+01 -3.754676e-07
1.125000e+01 -4.411287e-07
1.130000e+01 -5.139723e-07
1.135000e+01 -5.940624e-07
1.140000e+01 -6.832342e-07
1.145000e+01 -7.847256e-07
1.150000e+01 -9.021818e-07
1.155000e+01 -1.038737e-06
1.160000e+01 -1.196743e-06
1.165000e+01 -1.378195e-06
1.170000e+01 -1.585430e-06
1.175000e+01 -1.821472e-06
1.180000e+01 -2.089827e-06
1.185000e+01 -2.393989e-06
1.190000e+01 -2.737250e-06
1.195000e+01 -3.123222e-06
1.200000e+01 -3.556823e-06
1.205000e+01 -4.045046e-06
1.210000e+01 -4.596767e-06
1.215000e+01 -5.221476e-06
1.220000e+01 -5.927664e-06
1.225000e+01 -6.721983e-06
1.230000e+01 -7.610005e-06
1.235000e+01 -8.598348e-06
1.240000e+01 -9.696962e-06
1.245000e+01 -1.092009e-05
1.250000e+01 -1.228518e-05
1.255000e+01 -1.381027e-05
1.260000e+01 -1.551148e-05
1.265000e+01 -1.740228e-05
1.270000e+01 -1.949513e-05
1.275000e+01 -2.180439e-05
1.280000e+01 -2.434886e-05
1.285000e+01 -2.715213e-05
1.290000e+01 -3.024068e-05
1.295000e+01 -3.364108e-05
1.300000e+01 -3.737815e-05
1.305000e+01 -4.147558e-05
1.310000e+01 -4.595821e-05
1.315000e+01 -5.085473e-05
1.320000e+01 -5.619818e-05
1.325000e+01 -6.202415e-05
1.330000e+01 -6.836736e-05
1.335000e+01 -7.525921e-05
1.340000e+01 -8.272814e-05
1.345000e+01 -9.080298e-05
1.350000e+01 -9.951724e-05
1.355000e+01 -1.089117e-04
1.360000e+01 -1.190331e-04
1.365000e+01 -1.299295e-04
1.370000e+01 -1.416437e-04
1.375000e+01 -1.542102e-04
1.380000e+01 -1.676550e-04
1.385000e+01 -1.820000e-04
1.390000e+01 -1.972691e-04
1.395000e+01 -2.134922e-04
1.400000e+01 -2.307054e-04
1.405000e+01 -2.489470e-04
1.410000e+01 -2.682521e-04
1.415000e+01 -2.886464e-04
1.420000e+01 -3.101444e-04
1.425000e+01 -3.327499e-04
1.430000e+01 -3.564590e-04
1.435000e+01 -3.812626e-04
1.440000e+01 -4.071494e-04
1.445000e+01 -4.341061e-04
1.450000e+01 -4.621159e-04
1.455000e+01 -4.911557e-04
1.460000e+01 -5.211931e-04
1.465000e+01 -5.521846e-04
1.470000e+01 -5.840724e-04
1.475000e+01 -6.167841e-04
1.480000e+01 -6.502353e-04
1.485000e+01 -6.843294e-04
1.490000e+01 -7.189604e-04
1.495000e+01 -7.540137e-04
1.500000e+01 -7.893643e-04
1.505000e+01 -8.248773e-04
1.510000e+01 -8.604038e-04
1.515000e+01 -8.957815e-04
1.520000e+01 -9.308350e-04
1.525000e+01 -9.653764e-04
1.530000e+01 -9.992070e-04
1.535000e+01 -1.032116e-03
1.540000e+01 -1.063885e-03
1.545000e+01 -1.094279e-03
1.550000e+01 -1.123057e-03
1.555000e+01 -1.149968e-03
1.560000e+01 -1.174757e-03
1.565000e+01 -1.197167e-03
1.570000e+01 -1.216941e-03
1.575000e+01 -1.233818e-03
1.580000e+01 -1.247538e-03
1.585000e+01 -1.257834e-03
1.590000e+01 -1.264444e-03
1.595000e+01 -1.267102e-03
1.600000e+01 -1.265554e-03
1.605000e+01 -1.259558e-03
1.610000e+01 -1.248889e-03
1.615000e+01 -1.233337e-03
1.620000e+01 -1.212708e-03
1.625000e+01 -1.186823e-03
1.630000e+01 -1.155521e-03
1.635000e+01 -1.118660e-03
1.640000e+01 -1.076122e-03
1.645000e+01 -1.027817e-03
1.650000e+01 -9.736847e-04
1.655000e+01 -9.137009e-04
1.660000e+01 -8.478733e-04
1.665000e+01 -7.762435e-04
1.670000e+01 -6.988849e-04
1.675000e+01 -6.159050e-04
1.680000e+01 -5.274452e-04
1.685000e+01 -4.336824e-04
1.690000e+01 -3.348322e-04
1.695000e+01 -2.311487e-04
1.700000e+01 -1.229250e-04
1.705000e+01 -1.049291e-05
1.710000e+01 1.057804e-04
1.715000e+01 2.254944e-04
1.720000e+01 3.482181e-04
1.725000e+01 4.734919e-04
1.730000e+01 6.008298e-04
1.735000e+01 7.297197e-04
1.740000e+01 8.596255e-04
1.745000e+01 9.899896e-04
1.750000e+01 1.120236e-03
1.755000e+01 1.249775e-03
1.760000e+01 1.378005e-03
1.765000e+01 1.504321e-03
1.770000e+01 1.628115e-03
1.775000e+01 1.748783e-03
1.780000e+01 1.865726e-03
1.785000e+01 1.978358e-03
1.790000e+01 2.086104e-03
1.795000e+01 2.188410e-03
1.800000e+01 2.284745e-03
1.805000e+01 2.374603e-03
1.810000e+01 2.457507e-03
1.815000e+01 2.533017e-03
1.820000e+01 2.600725e-03
1.825000e+01 2.660262e-03
1.830000e+01 2.711304e-03
1.835000e+01 2.753568e-03
1.840000e+01 2.786822e-03
1.845000e+01 2.810886e-03
1.850000e+01 2.825630e-03
1.855000e+01 2.830978e-03
1.860000e+01 2.826904e-03
1.865000e+01 2.813437e-03
1.870000e+01 2.790648e-03
1.875000e+01 2.758662e-03
1.880000e+01 2.717655e-03
1.885000e+01 2.667854e-03
1.890000e+01 2.609533e-03
1.895000e+01 2.543015e-03
1.900000e+01 2.468664e-03
1.905000e+01 2.386885e-03
1.910000e+01 2.298114e-03
1.915000e+01 2.202824e-03
1.920000e+01 2.101519e-03
1.925000e+01 1.994724e-03
1.930000e+01 1.882996e-03
1.935000e+01 1.766907e-03
1.940000e+01 1.647044e-03
1.945000e+01 1.524005e-03
1.950000e+01 1.398392e-03
1.955000e+01 1.270804e-03
1.960000e+01 1.141840e-03
1.965000e+01 1.012092e-03
1.970000e+01 8.821462e-04
1.975000e+01 7.525773e-04
1.980000e+01 6.239476e-04
1.985000e+01 4.967987e-04
1.990000e+01 3.716473e-04
1.995000e+01 2.489826e-04
2.000000e+01 1.292618e-04
2.005000e+01 1.291116e-05
2.010000e+01 -9.967400e-05
2.015000e+01 -2.081294e-04
2.020000e+01 -3.121235e-04
2.025000e+01 -4.113592e-04
2.030000e+01 -5.055767e-04
2.035000e+01 -5.945549e-04
2.040000e+01 -6.781110e-04
2.045000e+01 -7.560996e-04
2.050000e+01 -8.284107e-04
2.055000e+01 -8.949686e-04
2.060000e+01 -9.557306e-04
2.065000e+01 -1.010688e-03
2.070000e+01 -1.059863e-03
2.075000e+01 -1.103310e-03
2.080000e+01 -1.141111e-03
2.085000e+01 -1.173375e-03
2.090000e+01 -1.200235e-03
2.095000e+01 -1.221846e-03
2.100000e+01 -1.238386e-03
2.105000e+01 -1.250050e-03
2.110000e+01 -1.257052e-03
2.115000e+01 -1.259615e-03
2.120000e+01 -1.257976e-03
2.125000e+01 -1.252376e-03
2.130000e+01 -1.243063e-03
2.135000e+01 -1.230291e-03
2.140000e+01 -1.214321e-03
2.145000e+01 -1.195418e-03
2.150000e+01 -1.173850e-03
2.155000e+01 -1.149880e-03
2.160000e+01 -1.123768e-03
2.165000e+01 -1.095763e-03
2.170000e+01 -1.066104e-03
2.175000e+01 -1.035026e-03
2.180000e+01 -1.002752e-03
2.185000e+01 -9.695045e-04
2.190000e+01 -9.354943e-04
2.195000e+01 -9.009236e-04
2.200000e+01 -8.659830e-04
2.205000e+01 -8.308497e-04
2.210000e+01 -7.956873e-04
2.215000e+01 -7.606469e-04
2.220000e+01 -7.258664e-04
2.225000e+01 -6.914726e-04
2.230000e+01 -6.575806e-04
2.235000e+01 -6.242933e-04
2.240000e+01 -5.917031e-04
2.245000e+01 -5.598912e-04
2.250000e+01 -5.289292e-04
2.255000e+01 -4.988779e-04
2.260000e+01 -4.697894e-04
2.265000e+01 -4.417055e-04
2.270000e+01 -4.146593e-04
2.275000e+01 -3.886744e-04
2.280000e+01 -3.637660e-04
2.285000e+01 -3.399415e-04
2.290000e+01 -3.172012e-04
2.295000e+01 -2.955407e-04
2.300000e+01 -2.749520e-04
2.305000e+01 -2.554226e-04
2.310000e+01 -2.369375e-04
2.315000e+01 -2.194762e-04
2.320000e+01 -2.030143e-04
2.325000e+01 -1.875230e-04
2.330000e+01 -1.729703e-04
2.335000e+01 -1.593231e-04
2.340000e+01 -1.465470e-04
2.345000e+01 -1.346071e-04
2.350000e+01 -1.234682e-04
2.355000e+01 -1.130951e-04
2.360000e+01 -1.034523e-04
2.365000e+01 -9.450474e-05
2.370000e+01 -8.621694e-05
2.375000e+01 -7.855308e-05
2.380000e+01 -7.147662e-05
2.385000e+01 -6.495116e-05
2.390000e+01 -5.894159e-05
2.395000e+01 -5.341523e-05
2.400000e+01 -4.834169e-05
2.405000e+01 -4.369231e-05
2.410000e+01 -3.943910e-05
2.415000e+01 -3.555443e-05
2.420000e+01 -3.201123e-05
2.425000e+01 -2.878384e-05
2.430000e+01 -2.584860e-05
2.435000e+01 -2.318360e-05
2.440000e+01 -2.076819e-05
2.445000e+01 -1.858240e-05
2.450000e+01 -1.660687e-05
2.455000e+01 -1.482326e-05
2.460000e+01 -1.321461e-05
2.465000e+01 -1.176539e-05
2.470000e+01 -1.046133e-05
2.475000e+01 -9.289192e-06
2.480000e+01 -8.236682e-06
2.485000e+01 -7.292589e-06
2.490000e+01 -6.446823e-06
2.495000e+01 -5.690375e-06
2.500000e+01 -5.015240e-06
2.505000e+01 -4.414385e-06
2.510000e+01 -3.881750e-06
2.515000e+01 -3.411964e-06
2.520000e+01 -2.999731e-06
2.525000e+01 -2.639064e-06
2.530000e+01 -2.322958e-06
2.535000e+01 -2.043897e-06
2.540000e+01 -1.795021e-06
2.545000e+01 -1.571290e-06
2.550000e+01 -1.369843e-06
2.555000e+01 -1.189385e-06
2.560000e+01 -1.029072e-06
2.565000e+01 -8.876695e-07
2.570000e+01 -7.633971e-07
2.575000e+01 -6.542661e-07
2.580000e+01 -5.583997e-07
2.585000e+01 -4.740462e-07
2.590000e+01 -3.994708e-07
2.595000e+01 -3.330975e-07
2.600000e+01 -2.739574e-07
2.605000e+01 -2.220421e-07
2.610000e+01 -1.780754e-07
2.615000e+01 -1.427049e-07
2.620000e+01 -1.157437e-07
2.625000e+01 -9.622373e-08
2.630000e+01 -8.339661e-08
2.635000e+01 -7.794014e-08
2.640000e+01 -8.227990e-08
2.645000e+01 -9.952463e-08
2.650000e+01 -1.316169e-07
2.655000e+01 -1.780074e-07
2.660000e+01 -2.358567e-07
2.665000e+01 -3.016846e-07
2.670000e+01 -3.733939e-07
2.675000e+01 -4.514502e-07
2.680000e+01 -5.387108e-07
2.685000e+01 -6.393169e-07
2.690000e+01 -7.574615e-07
2.695000e+01 -8.966044e-07
2.700000e+01 -1.059217e-06
2.705000e+01 -1.246926e-06
2.710000e+01 -1.461035e-06
2.715000e+01 -1.703467e-06
2.720000e+01 -1.977952e-06
2.725000e+01 -2.290906e-06
2.730000e+01 -2.651351e-06
2.735000e+01 -3.069810e-06
2.740000e+01 -3.556857e-06
2.745000e+01 -4.122332e-06
2.750000e+01 -4.775787e-06
2.755000e+01 -5.527691e-06
2.760000e+01 -6.390418e-06
2.765000e+01 -7.378298e-06
2.770000e+01 -8.507001e-06
2.775000e+01 -9.793329e-06
2.780000e+01 -1.125595e-05
2.785000e+01 -1.291699e-05
2.790000e+01 -1.480319e-05
2.795000e+01 -1.694563e-05
2.800000e+01 -1.937830e-05
2.805000e+01 -2.213656e-05
2.810000e+01 -2.525700e-05
2.815000e+01 -2.877874e-05
2.820000e+01 -3.274560e-05
2.825000e+01 -3.720739e-05
2.830000e+01 -4.222012e-05
2.835000e+01 -4.784532e-05
2.840000e+01 -5.414983e-05
2.845000e+01 -6.120608e-05
2.850000e+01 -6.909300e-05
2.855000e+01 -7.789645e-05
2.860000e+01 -8.770894e-05
2.865000e+01 -9.862936e-05
2.870000e+01 -1.107634e-04
2.875000e+01 -1.242245e-04
2.880000e+01 -1.391363e-04
2.885000e+01 -1.556318e-04
2.890000e+01 -1.738546e-04
2.895000e+01 -1.939564e-04
2.900000e+01 -2.160973e-04
2.905000e+01 -2.404459e-04
2.910000e+01 -2.671798e-04
2.915000e+01 -2.964872e-04
2.920000e+01 -3.285654e-04
2.925000e+01 -3.636201e-04
2.930000e+01 -4.018659e-04
2.935000e+01 -4.435254e-04
2.940000e+01 -4.888307e-04
2.945000e+01 -5.380234e-04
