-8.000000e+00 0.000000e+00
-7.950000e+00 0.000000e+00
-7.900000e+00 0.000000e+00
-7.850000e+00 0.000000e+00
-7.800000e+00 0.000000e+00
-7.750000e+00 0.000000e+00
-7.700000e+00 0.000000e+00
-7.650000e+00 0.000000e+00
-7.600000e+00 0.000000e+00
-7.550000e+00 -6.988791e-34
-7.500000e+00 -3.599390e-32
-7.450000e+00 -1.012379e-30
-7.400000e+00 -1.533191e-29
-7.350000e+00 -1.309790e-28
-7.300000e+00 -7.329737e-28
-7.250000e+00 -2.943535e-27
-7.200000e+00 -8.843908e-27
-7.150000e+00 -1.974176e-26
-7.100000e+00 -2.957591e-26
-7.050000e+00 -1.414996e-26
-7.000000e+00 6.766117e-26
-6.950000e+00 2.246201e-25
-6.900000e+00 3.244241e-25
-6.850000e+00 4.772509e-26
-6.800000e+00 -8.151115e-25
-6.750000e+00 -1.651248e-24
-6.700000e+00 -7.319795e-25
-6.650000e+00 3.016744e-24
-6.600000e+00 6.185650e-24
-6.550000e+00 1.600510e-25
-6.500000e+00 -1.837471e-23
-6.450000e+00 -2.853256e-23
-6.400000e+00 1.363939e-23
-6.350000e+00 1.176958e-22
-6.300000e+00 1.688906e-22
-6.250000e+00 -5.531195e-23
-6.200000e+00 -6.080858e-22
-6.150000e+00 -9.621401e-22
-6.100000e+00 -6.892466e-23
-6.050000e+00 2.476322e-21
-6.000000e+00 4.667132e-21
-5.950000e+00 2.072345e-21
-5.900000e+00 -7.897349e-21
-5.850000e+00 -1.898939e-20
-5.800000e+00 -1.464351e-20
-5.750000e+00 1.841875e-20
-5.700000e+00 6.496584e-20
-5.650000e+00 7.053387e-20
-5.600000e+00 -2.128047e-20
-5.550000e+00 -1.865392e-19
-5.500000e+00 -2.681051e-19
-5.450000e+00 -6.130088e-20
-5.400000e+00 4.436746e-19
-5.350000e+00 8.519209e-19
-5.300000e+00 5.137685e-19
-5.250000e+00 -8.313537e-19
-5.200000e+00 -2.339840e-18
-5.150000e+00 -2.178995e-18
-5.100000e+00 9.448552e-19
-5.050000e+00 5.630675e-18
-5.000000e+00 7.268022e-18
-4.950000e+00 1.187453e-18
-4.900000e+00 -1.153236e-17
-4.850000e+00 -2.074429e-17
-4.800000e+00 -1.243101e-17
-4.750000e+00 1.741745e-17
-4.700000e+00 5.044485e-17
-4.650000e+00 5.081719e-17
-4.600000e+00 -6.132405e-18
-4.550000e+00 -9.806328e-17
-4.500000e+00 -1.483976e-16
-4.450000e+00 -7.444315e-17
-4.400000e+00 1.270996e-16
-4.350000e+00 3.271652e-16
-4.300000e+00 3.199271e-16
-4.250000e+00 -9.390971e-18
-4.200000e+00 -5.170711e-16
-4.150000e+00 -8.060227e-16
-4.100000e+00 -4.868543e-16
-4.050000e+00 4.401906e-16
-4.000000e+00 1.402612e-15
-3.950000e+00 1.540180e-15
-3.900000e+00 3.829117e-16
-3.850000e+00 -1.562393e-15
-3.800000e+00 -2.903166e-15
-3.750000e+00 -2.289096e-15
-3.700000e+00 3.929252e-16
-3.650000e+00 3.555921e-15
-3.600000e+00 4.800297e-15
-3.550000e+00 2.705183e-15
-3.500000e+00 -1.839658e-15
-3.450000e+00 -5.980369e-15
-3.400000e+00 -6.841302e-15
-3.350000e+00 -3.557416e-15
-3.300000e+00 2.269555e-15
-3.250000e+00 7.901183e-15
-3.200000e+00 1.104172e-14
-3.150000e+00 1.004594e-14
-3.100000e+00 3.181680e-15
-3.050000e+00 -1.058113e-14
-3.000000e+00 -2.781159e-14
-2.950000e+00 -3.696708e-14
-2.900000e+00 -2.167532e-14
-2.850000e+00 2.535355e-14
-2.800000e+00 8.522320e-14
-2.750000e+00 1.106794e-13
-2.700000e+00 5.356162e-14
-2.650000e+00 -8.670211e-14
-2.600000e+00 -2.314150e-13
-2.550000e+00 -2.517562e-13
-2.500000e+00 -6.509079e-14
-2.450000e+00 2.613809e-13
-2.400000e+00 4.997941e-13
-2.350000e+00 4.021654e-13
-2.300000e+00 -7.234420e-14
-2.250000e+00 -6.275815e-13
-2.200000e+00 -7.738212e-13
-2.150000e+00 -2.294564e-13
-2.100000e+00 7.026888e-13
-2.050000e+00 1.180204e-12
-2.000000e+00 4.483561e-13
-1.950000e+00 -1.302945e-12
-1.900000e+00 -2.619797e-12
-1.850000e+00 -1.620518e-12
-1.800000e+00 2.239610e-12
-1.750000e+00 6.756017e-12
-1.700000e+00 7.531992e-12
-1.650000e+00 1.057352e-12
-1.600000e+00 -1.128157e-11
-1.550000e+00 -2.157548e-11
-1.500000e+00 -1.896056e-11
-1.450000e+00 2.145839e-12
-1.400000e+00 3.415222e-11
-1.350000e+00 5.589693e-11
-1.300000e+00 4.375509e-11
-1.250000e+00 -9.790970e-12
-1.200000e+00 -8.230338e-11
-1.150000e+00 -1.258201e-10
-1.100000e+00 -9.378753e-11
-1.050000e+00 2.186803e-11
-1.000000e+00 1.689304e-10
-9.499998e-01 2.513297e-10
-9.000001e-01 1.852246e-10
-8.499999e-01 -3.421778e-11
-7.999997e-01 -3.024611e-10
-7.500000e-01 -4.465115e-10
-6.999998e-01 -3.290132e-10
-6.500001e-01 4.256813e-11
-5.999999e-01 4.806686e-10
-5.499997e-01 7.027150e-10
-5.000000e-01 5.067654e-10
-4.499998e-01 -6.648929e-11
-4.000001e-01 -7.058478e-10
-3.499999e-01 -9.878187e-10
-2.999997e-01 -6.499098e-10
-2.500000e-01 1.913435e-10
-1.999998e-01 1.045126e-09
-1.500001e-01 1.316394e-09
-9.999990e-02 7.023643e-10
-4.999971e-02 -5.405506e-10
0.000000e+00 -1.670989e-09
5.000019e-02 -1.886127e-09
1.000004e-01 -8.580654e-10
1.500006e-01 9.700384e-10
1.999998e-01 2.566596e-09
2.500000e-01 2.912073e-09
3.000002e-01 1.658797e-09
3.500004e-01 -5.924219e-10
4.000006e-01 -2.624304e-09
4.499998e-01 -3.368420e-09
5.000000e-01 -2.607502e-09
5.500002e-01 -1.115242e-09
6.000004e-01 -8.607489e-11
6.500006e-01 -2.017749e-10
6.999998e-01 -9.807881e-10
7.500000e-01 -9.272815e-10
8.000002e-01 1.510608e-09
8.500004e-01 6.727461e-09
9.000006e-01 1.327709e-08
9.499998e-01 1.821770e-08
1.000000e+00 1.834759e-08
1.050000e+00 1.162402e-08
1.100000e+00 -2.055711e-09
1.150001e+00 -2.111206e-08
1.200000e+00 -4.332144e-08
1.250000e+00 -6.693741e-08
1.300000e+00 -9.127343e-08
1.350000e+00 -1.166170e-07
1.400001e+00 -1.438460e-07
1.450000e+00 -1.742196e-07
1.500000e+00 -2.094613e-07
1.550000e+00 -2.517715e-07
1.600000e+00 -3.032969e-07
1.650001e+00 -3.650431e-07
1.700000e+00 -4.359373e-07
1.750000e+00 -5.130855e-07
1.800000e+00 -5.937492e-07
1.850000e+00 -6.783345e-07
1.900001e+00 -7.725686e-07
1.950000e+00 -8.869770e-07
2.000000e+00 -1.033155e-06
2.050000e+00 -1.218445e-06
2.100000e+00 -1.442160e-06
2.150001e+00 -1.696133e-06
2.200000e+00 -1.970092e-06
2.250000e+00 -2.259322e-06
2.300000e+00 -2.570303e-06
2.350000e+00 -2.920777e-06
2.400001e+00 -3.333854e-06
2.450000e+00 -3.829321e-06
2.500000e+00 -4.417202e-06
2.550000e+00 -5.097323e-06
2.600000e+00 -5.864958e-06
2.650001e+00 -6.719010e-06
2.700000e+00 -7.667673e-06
2.750000e+00 -8.728455e-06
2.800000e+00 -9.923259e-06
2.850000e+00 -1.127245e-05
2.900001e+00 -1.279232e-05
2.950000e+00 -1.449775e-05
3.000000e+00 -1.640784e-05
3.050000e+00 -1.855014e-05
3.100000e+00 -2.095970e-05
3.150001e+00 -2.367288e-05
3.200000e+00 -2.671988e-05
3.250000e+00 -3.012123e-05
3.300000e+00 -3.389159e-05
3.350000e+00 -3.804949e-05
3.400001e+00 -4.262800e-05
3.450000e+00 -4.767995e-05
3.500000e+00 -5.327453e-05
3.550000e+00 -5.948680e-05
3.600000e+00 -6.638563e-05
3.650001e+00 -7.402617e-05
3.700000e+00 -8.245039e-05
3.750000e+00 -9.169525e-05
3.800000e+00 -1.018036e-04
3.850000e+00 -1.128338e-04
3.900001e+00 -1.248627e-04
3.950000e+00 -1.379843e-04
4.000000e+00 -1.523026e-04
4.050000e+00 -1.679226e-04
4.100000e+00 -1.849436e-04
4.150001e+00 -2.034543e-04
4.200000e+00 -2.235328e-04
4.250000e+00 -2.452522e-04
4.300000e+00 -2.686878e-04
4.350000e+00 -2.939271e-04
4.400001e+00 -3.210741e-04
4.450000e+00 -3.502479e-04
4.500000e+00 -3.815746e-04
4.550000e+00 -4.151749e-04
4.600000e+00 -4.511545e-04
4.650001e+00 -4.896006e-04
4.700000e+00 -5.305877e-04
4.750000e+00 -5.741856e-04
4.800000e+00 -6.204700e-04
4.850000e+00 -6.695239e-04
4.900001e+00 -7.214347e-04
4.950000e+00 -7.762827e-04
5.000000e+00 -8.341318e-04
5.050000e+00 -8.950243e-04
5.100000e+00 -9.589811e-04
5.150001e+00 -1.026008e-03
5.200000e+00 -1.096100e-03
5.250000e+00 -1.169244e-03
5.300000e+00 -1.245417e-03
5.350000e+00 -1.324577e-03
5.400001e+00 -1.406658e-03
5.450000e+00 -1.491567e-03
5.500000e+00 -1.579183e-03
5.550000e+00 -1.669359e-03
5.600000e+00 -1.761920e-03
5.650001e+00 -1.856669e-03
5.700000e+00 -1.953385e-03
5.750000e+00 -2.051818e-03
5.800000e+00 -2.151692e-03
5.850000e+00 -2.252703e-03
5.900001e+00 -2.354512e-03
5.950000e+00 -2.456756e-03
6.000000e+00 -2.559036e-03
6.050000e+00 -2.660923e-03
6.100000e+00 -2.761957e-03
6.150001e+00 -2.861651e-03
6.200000e+00 -2.959498e-03
6.250000e+00 -3.054964e-03
6.300000e+00 -3.147499e-03
6.350000e+00 -3.236529e-03
6.400001e+00 -3.321462e-03
6.450000e+00 -3.401690e-03
6.500000e+00 -3.476589e-03
6.550000e+00 -3.545528e-03
6.600000e+00 -3.607871e-03
6.650001e+00 -3.662986e-03
6.700000e+00 -3.710245e-03
6.750000e+00 -3.749027e-03
6.800000e+00 -3.778725e-03
6.850000e+00 -3.798743e-03
6.900001e+00 -3.808507e-03
6.950000e+00 -3.807465e-03
7.000000e+00 -3.795099e-03
7.050000e+00 -3.770930e-03
7.100000e+00 -3.734524e-03
7.150001e+00 -3.685496e-03
7.200000e+00 -3.623510e-03
7.250000e+00 -3.548288e-03
7.300000e+00 -3.459612e-03
7.350000e+00 -3.357321e-03
7.400001e+00 -3.241328e-03
7.450000e+00 -3.111618e-03
7.500000e+00 -2.968247e-03
7.550000e+00 -2.811351e-03
7.600000e+00 -2.641144e-03
7.650001e+00 -2.457918e-03
7.700000e+00 -2.262046e-03
7.750000e+00 -2.053984e-03
7.800000e+00 -1.834268e-03
7.850000e+00 -1.603520e-03
7.900001e+00 -1.362436e-03
7.950000e+00 -1.111794e-03
8.000000e+00 -8.524421e-04
8.050001e+00 -5.852985e-04
8.100000e+00 -3.113447e-04
8.150000e+00 -3.162119e-05
8.200001e+00 2.527776e-04
8.250000e+00 5.407074e-04
8.300001e+00 8.309804e-04
8.350000e+00 1.122372e-03
8.400000e+00 1.413628e-03
8.450001e+00 1.703480e-03
8.500000e+00 1.990647e-03
8.550001e+00 2.273844e-03
8.600000e+00 2.551793e-03
8.650000e+00 2.823225e-03
8.700001e+00 3.086893e-03
8.750000e+00 3.341578e-03
8.800001e+00 3.586102e-03
8.850000e+00 3.819334e-03
8.900000e+00 4.040201e-03
8.950001e+00 4.247692e-03
9.000000e+00 4.440871e-03
9.050001e+00 4.618877e-03
9.100000e+00 4.780930e-03
9.150000e+00 4.926339e-03
9.200001e+00 5.054498e-03
9.250000e+00 5.164899e-03
9.300001e+00 5.257132e-03
9.350000e+00 5.330886e-03
9.400000e+00 5.385961e-03
9.450001e+00 5.422257e-03
9.500000e+00 5.439781e-03
9.550001e+00 5.438643e-03
9.600000e+00 5.419055e-03
9.650000e+00 5.381333e-03
9.700001e+00 5.325890e-03
9.750000e+00 5.253240e-03
9.800001e+00 5.163983e-03
9.850000e+00 5.058793e-03
9.900000e+00 4.938432e-03
9.950001e+00 4.803724e-03
1.000000e+01 4.655569e-03
1.005000e+01 4.494923e-03
1.010000e+01 4.322793e-03
1.015000e+01 4.140228e-03
1.020000e+01 3.948314e-03
1.025000e+01 3.748165e-03
1.030000e+01 3.540921e-03
1.035000e+01 3.327736e-03
1.040000e+01 3.109772e-03
1.045000e+01 2.888191e-03
1.050000e+01 2.664136e-03
1.055000e+01 2.438736e-03
1.060000e+01 2.213094e-03
1.065000e+01 1.988286e-03
1.070000e+01 1.765355e-03
1.075000e+01 1.545301e-03
1.080000e+01 1.329087e-03
1.085000e+01 1.117623e-03
1.090000e+01 9.117731e-04
1.095000e+01 7.123466e-04
1.100000e+01 5.200953e-04
1.105000e+01 3.357125e-04
1.110000e+01 1.598300e-04
1.115000e+01 -6.979823e-06
1.120000e+01 -1.642042e-04
1.125000e+01 -3.113905e-04
1.130000e+01 -4.481463e-04
1.135000e+01 -5.741385e-04
1.140000e+01 -6.890892e-04
1.145000e+01 -7.927715e-04
1.150000e+01 -8.850042e-04
1.155000e+01 -9.656516e-04
1.160000e+01 -1.034622e-03
1.165000e+01 -1.091869e-03
1.170000e+01 -1.137384e-03
1.175000e+01 -1.171193e-03
1.180000e+01 -1.193349e-03
1.185000e+01 -1.203925e-03
1.190000e+01 -1.203012e-03
1.195000e+01 -1.190721e-03
1.200000e+01 -1.167178e-03
1.205000e+01 -1.132521e-03
1.210000e+01 -1.086893e-03
1.215000e+01 -1.030440e-03
1.220000e+01 -9.633045e-04
1.225000e+01 -8.856310e-04
1.230000e+01 -7.975567e-04
1.235000e+01 -6.992143e-04
1.240000e+01 -5.907271e-04
1.245000e+01 -4.722106e-04
1.250000e+01 -3.437745e-04
1.255000e+01 -2.055239e-04
1.260000e+01 -5.755793e-05
1.265000e+01 1.000334e-04
1.270000e+01 2.671710e-04
1.275000e+01 4.437864e-04
1.280000e+01 6.298143e-04
1.285000e+01 8.251860e-04
1.290000e+01 1.029823e-03
1.295000e+01 1.243639e-03
1.300000e+01 1.466531e-03
1.305000e+01 1.698386e-03
1.310000e+01 1.939070e-03
1.315000e+01 2.188423e-03
1.320000e+01 2.446257e-03
1.325000e+01 2.712349e-03
1.330000e+01 2.986442e-03
1.335000e+01 3.268238e-03
1.340000e+01 3.557393e-03
1.345000e+01 3.853503e-03
1.350000e+01 4.156101e-03
1.355000e+01 4.464651e-03
1.360000e+01 4.778546e-03
1.365000e+01 5.097107e-03
1.370000e+01 5.419579e-03
1.375000e+01 5.745121e-03
1.380000e+01 6.072807e-03
1.385000e+01 6.401619e-03
1.390000e+01 6.730465e-03
1.395000e+01 7.058167e-03
1.400000e+01 7.383463e-03
1.405000e+01 7.705005e-03
1.410000e+01 8.021348e-03
1.415000e+01 8.330968e-03
1.420000e+01 8.632250e-03
1.425000e+01 8.923506e-03
1.430000e+01 9.202992e-03
1.435000e+01 9.468883e-03
1.440000e+01 9.719313e-03
1.445000e+01 9.952360e-03
1.450000e+01 1.016608e-02
1.455000e+01 1.035848e-02
1.460000e+01 1.052760e-02
1.465000e+01 1.067145e-02
1.470000e+01 1.078806e-02
1.475000e+01 1.087548e-02
1.480000e+01 1.093181e-02
1.485000e+01 1.095521e-02
1.490000e+01 1.094391e-02
1.495000e+01 1.089624e-02
1.500000e+01 1.081062e-02
1.505000e+01 1.068560e-02
1.510000e+01 1.051986e-02
1.515000e+01 1.031227e-02
1.520000e+01 1.006184e-02
1.525000e+01 9.767788e-03
1.530000e+01 9.429536e-03
1.535000e+01 9.046711e-03
1.540000e+01 8.619167e-03
1.545000e+01 8.147005e-03
1.550000e+01 7.630571e-03
1.555000e+01 7.070475e-03
1.560000e+01 6.467583e-03
1.565000e+01 5.823030e-03
1.570000e+01 5.138215e-03
1.575000e+01 4.414813e-03
1.580000e+01 3.654771e-03
1.585000e+01 2.860303e-03
1.590000e+01 2.033884e-03
1.595000e+01 1.178240e-03
1.600000e+01 2.963390e-04
1.605000e+01 -6.086219e-04
1.610000e+01 -1.533235e-03
1.615000e+01 -2.473892e-03
1.620000e+01 -3.426811e-03
1.625000e+01 -4.388054e-03
1.630000e+01 -5.353543e-03
1.635000e+01 -6.319091e-03
1.640000e+01 -7.280424e-03
1.645000e+01 -8.233210e-03
1.650000e+01 -9.173084e-03
1.655000e+01 -1.009568e-02
1.660000e+01 -1.099667e-02
1.665000e+01 -1.187177e-02
1.670000e+01 -1.271679e-02
1.675000e+01 -1.352764e-02
1.680000e+01 -1.430039e-02
1.685000e+01 -1.503128e-02
1.690000e+01 -1.571674e-02
1.695000e+01 -1.635342e-02
1.700000e+01 -1.693825e-02
1.705000e+01 -1.746840e-02
1.710000e+01 -1.794133e-02
1.715000e+01 -1.835481e-02
1.720000e+01 -1.870694e-02
1.725000e+01 -1.899616e-02
1.730000e+01 -1.922123e-02
1.735000e+01 -1.938131e-02
1.740000e+01 -1.947587e-02
1.745000e+01 -1.950481e-02
1.750000e+01 -1.946837e-02
1.755000e+01 -1.936712e-02
1.760000e+01 -1.920202e-02
1.765000e+01 -1.897437e-02
1.770000e+01 -1.868579e-02
1.775000e+01 -1.833822e-02
1.780000e+01 -1.793392e-02
1.785000e+01 -1.747541e-02
1.790000e+01 -1.696550e-02
1.795000e+01 -1.640724e-02
1.800000e+01 -1.580391e-02
1.805000e+01 -1.515896e-02
1.810000e+01 -1.447605e-02
1.815000e+01 -1.375896e-02
1.820000e+01 -1.301157e-02
1.825000e+01 -1.223787e-02
1.830000e+01 -1.144189e-02
1.835000e+01 -1.062771e-02
1.840000e+01 -9.799400e-03
1.845000e+01 -8.961013e-03
1.850000e+01 -8.116540e-03
1.855000e+01 -7.269906e-03
1.860000e+01 -6.424933e-03
1.865000e+01 -5.585332e-03
1.870000e+01 -4.754665e-03
1.875000e+01 -3.936334e-03
1.880000e+01 -3.133560e-03
1.885000e+01 -2.349365e-03
1.890000e+01 -1.586569e-03
1.895000e+01 -8.477787e-04
1.900000e+01 -1.353787e-04
1.905000e+01 5.484845e-04
1.910000e+01 1.201904e-03
1.915000e+01 1.823226e-03
1.920000e+01 2.411040e-03
1.925000e+01 2.964180e-03
1.930000e+01 3.481722e-03
1.935000e+01 3.962975e-03
1.940000e+01 4.407483e-03
1.945000e+01 4.815014e-03
1.950000e+01 5.185550e-03
1.955000e+01 5.519271e-03
1.960000e+01 5.816548e-03
1.965000e+01 6.077933e-03
1.970000e+01 6.304138e-03
1.975000e+01 6.496045e-03
1.980000e+01 6.654671e-03
1.985000e+01 6.781172e-03
1.990000e+01 6.876806e-03
1.995000e+01 6.942939e-03
2.000000e+01 6.981021e-03
2.005000e+01 6.992572e-03
2.010000e+01 6.979165e-03
2.015000e+01 6.942413e-03
2.020000e+01 6.883948e-03
2.025000e+01 6.805418e-03
2.030000e+01 6.708468e-03
2.035000e+01 6.594746e-03
2.040000e+01 6.465883e-03
2.045000e+01 6.323494e-03
2.050000e+01 6.169158e-03
2.055000e+01 6.004409e-03
2.060000e+01 5.830736e-03
2.065000e+01 5.649565e-03
2.070000e+01 5.462266e-03
2.075000e+01 5.270137e-03
2.080000e+01 5.074402e-03
2.085000e+01 4.876211e-03
2.090000e+01 4.676634e-03
2.095000e+01 4.476673e-03
2.100000e+01 4.277256e-03
2.105000e+01 4.079239e-03
2.110000e+01 3.883401e-03
2.115000e+01 3.690446e-03
2.120000e+01 3.501003e-03
2.125000e+01 3.315623e-03
2.130000e+01 3.134795e-03
2.135000e+01 2.958935e-03
2.140000e+01 2.788396e-03
2.145000e+01 2.623468e-03
2.150000e+01 2.464380e-03
2.155000e+01 2.311315e-03
2.160000e+01 2.164407e-03
2.165000e+01 2.023750e-03
2.170000e+01 1.889393e-03
2.175000e+01 1.761345e-03
2.180000e+01 1.639571e-03
2.185000e+01 1.524005e-03
2.190000e+01 1.414551e-03
2.195000e+01 1.311090e-03
2.200000e+01 1.213482e-03
2.205000e+01 1.121569e-03
2.210000e+01 1.035177e-03
2.215000e+01 9.541197e-04
2.220000e+01 8.782056e-04
2.225000e+01 8.072373e-04
2.230000e+01 7.410105e-04
2.235000e+01 6.793120e-04
2.240000e+01 6.219200e-04
2.245000e+01 5.686082e-04
2.250000e+01 5.191530e-04
2.255000e+01 4.733390e-04
2.260000e+01 4.309604e-04
2.265000e+01 3.918195e-04
2.270000e+01 3.557237e-04
2.275000e+01 3.224843e-04
2.280000e+01 2.919178e-04
2.285000e+01 2.638480e-04
2.290000e+01 2.381070e-04
2.295000e+01 2.145335e-04
2.300000e+01 1.929717e-04
2.305000e+01 1.732702e-04
2.310000e+01 1.552849e-04
2.315000e+01 1.388823e-04
2.320000e+01 1.239414e-04
2.325000e+01 1.103544e-04
2.330000e+01 9.802308e-05
2.335000e+01 8.685581e-05
2.340000e+01 7.676446e-05
2.345000e+01 6.766375e-05
2.350000e+01 5.947226e-05
2.355000e+01 5.211372e-05
2.360000e+01 4.551768e-05
2.365000e+01 3.961928e-05
2.370000e+01 3.435858e-05
2.375000e+01 2.968025e-05
2.380000e+01 2.553409e-05
2.385000e+01 2.187569e-05
2.390000e+01 1.866636e-05
2.395000e+01 1.587161e-05
2.400000e+01 1.345864e-05
2.405000e+01 1.139408e-05
2.410000e+01 9.643545e-06
2.415000e+01 8.173492e-06
2.420000e+01 6.953945e-06
2.425000e+01 5.960277e-06
2.430000e+01 5.172452e-06
2.435000e+01 4.572104e-06
2.440000e+01 4.139410e-06
2.445000e+01 3.851825e-06
2.450000e+01 3.685355e-06
2.455000e+01 3.617166e-06
2.460000e+01 3.627524e-06
2.465000e+01 3.699935e-06
2.470000e+01 3.819994e-06
2.475000e+01 3.974439e-06
2.480000e+01 4.151416e-06
2.485000e+01 4.341485e-06
2.490000e+01 4.537994e-06
2.495000e+01 4.735773e-06
2.500000e+01 4.928690e-06
2.505000e+01 5.107677e-06
2.510000e+01 5.260717e-06
2.515000e+01 5.374876e-06
2.520000e+01 5.439028e-06
2.525000e+01 5.445654e-06
2.530000e+01 5.391084e-06
2.535000e+01 5.274718e-06
2.540000e+01 5.098332e-06
2.545000e+01 4.865828e-06
2.550000e+01 4.583013e-06
2.555000e+01 4.256683e-06
2.560000e+01 3.892984e-06
2.565000e+01 3.495881e-06
2.570000e+01 3.066766e-06
2.575000e+01 2.605551e-06
2.580000e+01 2.112524e-06
2.585000e+01 1.589858e-06
2.590000e+01 1.042082e-06
2.595000e+01 4.757045e-07
2.600000e+01 -1.013638e-07
2.605000e+01 -6.802338e-07
2.610000e+01 -1.251433e-06
2.615000e+01 -1.805603e-06
2.620000e+01 -2.334424e-06
2.625000e+01 -2.831192e-06
2.630000e+01 -3.290556e-06
2.635000e+01 -3.707574e-06
2.640000e+01 -4.077013e-06
2.645000e+01 -4.393656e-06
2.650000e+01 -4.653525e-06
2.655000e+01 -4.854946e-06
2.660000e+01 -4.998320e-06
2.665000e+01 -5.084545e-06
2.670000e+01 -5.113338e-06
2.675000e+01 -5.082995e-06
2.680000e+01 -4.991964e-06
2.685000e+01 -4.840926e-06
2.690000e+01 -4.633442e-06
2.695000e+01 -4.374290e-06
2.700000e+01 -4.066746e-06
2.705000e+01 -3.711167e-06
2.710000e+01 -3.306401e-06
2.715000e+01 -2.853228e-06
2.720000e+01 -2.357127e-06
2.725000e+01 -1.828112e-06
2.730000e+01 -1.277697e-06
2.735000e+01 -7.154525e-07
2.740000e+01 -1.478850e-07
2.745000e+01 4.197311e-07
2.750000e+01 9.806547e-07
2.755000e+01 1.525968e-06
2.760000e+01 2.046854e-06
2.765000e+01 2.537931e-06
2.770000e+01 2.998457e-06
2.775000e+01 3.429829e-06
2.780000e+01 3.831065e-06
2.785000e+01 4.195887e-06
2.790000e+01 4.513941e-06
2.795000e+01 4.775282e-06
2.800000e+01 4.974572e-06
2.805000e+01 5.111776e-06
2.810000e+01 5.189157e-06
2.815000e+01 5.207481e-06
2.820000e+01 5.164761e-06
2.825000e+01 5.058442e-06
2.830000e+01 4.888731e-06
2.835000e+01 4.659903e-06
2.840000e+01 4.378377e-06
2.845000e+01 4.049381e-06
2.850000e+01 3.675278e-06
2.855000e+01 3.257065e-06
2.860000e+01 2.797604e-06
2.865000e+01 2.303667e-06
2.870000e+01 1.785002e-06
2.875000e+01 1.251301e-06
2.880000e+01 7.097025e-07
2.885000e+01 1.646776e-07
2.890000e+01 -3.801237e-07
2.895000e+01 -9.201845e-07
2.900000e+01 -1.450170e-06
2.905000e+01 -1.965304e-06
2.910000e+01 -2.462210e-06
2.915000e+01 -2.937862e-06
2.920000e+01 -3.387308e-06
2.925000e+01 -3.802234e-06
2.930000e+01 -4.171964e-06
2.935000e+01 -4.486383e-06
2.940000e+01 -4.738761e-06
2.945000e+01 -4.926525e-06
