-8.000000e+00 0.000000e+00
-7.950000e+00 0.000000e+00
-7.900000e+00 0.000000e+00
-7.850000e+00 0.000000e+00
-7.800000e+00 0.000000e+00
-7.750000e+00 0.000000e+00
-7.700000e+00 0.000000e+00
-7.650000e+00 -1.519094e-24
-7.600000e+00 -2.334823e-23
-7.550000e+00 -2.414456e-22
-7.500000e+00 -1.658829e-21
-7.450000e+00 -7.497209e-21
-7.400000e+00 -2.258113e-20
-7.350000e+00 -4.365094e-20
-7.300000e+00 -4.153574e-20
-7.250000e+00 3.127197e-20
-7.200000e+00 1.589100e-19
-7.150000e+00 1.606094e-19
-7.100000e+00 -1.798728e-19
-7.050000e+00 -5.869284e-19
-7.000000e+00 4.301953e-20
-6.950000e+00 2.430264e-18
-6.900000e+00 4.042575e-18
-6.850000e+00 -1.544525e-18
-6.800000e+00 -1.708101e-17
-6.750000e+00 -2.795467e-17
-6.700000e+00 -1.649692e-18
-6.650000e+00 7.641488e-17
-6.600000e+00 1.448467e-16
-6.550000e+00 6.442194e-17
-6.500000e+00 -2.442194e-16
-6.450000e+00 -5.807581e-16
-6.400000e+00 -4.374014e-16
-6.350000e+00 5.554911e-16
-6.300000e+00 1.882427e-15
-6.250000e+00 1.940857e-15
-6.200000e+00 -7.201817e-16
-6.150000e+00 -5.108731e-15
-6.100000e+00 -6.786170e-15
-6.050000e+00 -8.276626e-16
-6.000000e+00 1.180187e-14
-5.950000e+00 2.027480e-14
-5.900000e+00 9.797660e-15
-5.850000e+00 -2.231803e-14
-5.800000e+00 -5.331146e-14
-5.750000e+00 -4.361402e-14
-5.700000e+00 2.696009e-14
-5.650000e+00 1.202998e-13
-5.600000e+00 1.436355e-13
-5.550000e+00 2.003158e-14
-5.500000e+00 -2.130734e-13
-5.450000e+00 -3.722998e-13
-5.400000e+00 -2.391483e-13
-5.350000e+00 2.264083e-13
-5.300000e+00 7.421783e-13
-5.250000e+00 8.176588e-13
-5.200000e+00 1.382646e-13
-5.150000e+00 -1.036483e-12
-5.100000e+00 -1.845749e-12
-5.050000e+00 -1.359507e-12
-5.000000e+00 5.950949e-13
-4.950000e+00 2.949872e-12
-4.900000e+00 3.813825e-12
-4.850000e+00 1.762408e-12
-4.800000e+00 -2.771514e-12
-4.750000e+00 -7.095019e-12
-4.700000e+00 -7.496827e-12
-4.650000e+00 -1.768174e-12
-4.600000e+00 8.392764e-12
-4.550000e+00 1.689147e-11
-4.500000e+00 1.585157e-11
-4.450000e+00 9.040734e-13
-4.400000e+00 -2.341900e-11
-4.350000e+00 -4.231424e-11
-4.300000e+00 -3.686474e-11
-4.250000e+00 2.712364e-12
-4.200000e+00 6.347849e-11
-4.150000e+00 1.072476e-10
-4.100000e+00 8.801058e-11
-4.050000e+00 -1.393964e-11
-4.000000e+00 -1.610100e-10
-3.950000e+00 -2.586724e-10
-3.900000e+00 -2.034310e-10
-3.850000e+00 3.778971e-11
-3.800000e+00 3.674235e-10
-3.750000e+00 5.742051e-10
-3.700000e+00 4.474383e-10
-3.650000e+00 -6.143585e-11
-3.600000e+00 -7.372701e-10
-3.550000e+00 -1.160085e-09
-3.500000e+00 -9.369697e-10
-3.450000e+00 6.946306e-12
-3.400000e+00 1.272043e-09
-3.350000e+00 2.114850e-09
-3.300000e+00 1.854391e-09
-3.250000e+00 3.448228e-10
-3.200000e+00 -1.792481e-09
-3.150000e+00 -3.389401e-09
-3.100000e+00 -3.354930e-09
-3.050000e+00 -1.373643e-09
-3.000000e+00 1.760222e-09
-2.950000e+00 4.448482e-09
-2.900000e+00 5.137275e-09
-2.850000e+00 3.245572e-09
-2.800000e+00 -4.013339e-10
-2.750000e+00 -3.958753e-09
-2.700000e+00 -5.601108e-09
-2.650000e+00 -4.604172e-09
-2.600000e+00 -1.781286e-09
-2.550000e+00 1.045837e-09
-2.500000e+00 2.242806e-09
-2.450000e+00 1.460178e-09
-2.400000e+00 -1.088495e-10
-2.350000e+00 -5.173763e-10
-2.300000e+00 1.600010e-09
-2.250000e+00 6.032575e-09
-2.200000e+00 1.099620e-08
-2.150000e+00 1.408428e-08
-2.100000e+00 1.343939e-08
-2.050000e+00 8.278705e-09
-2.000000e+00 -1.571265e-09
-1.950000e+00 -1.667476e-08
-1.900000e+00 -3.860424e-08
-1.850000e+00 -6.951363e-08
-1.800000e+00 -1.108057e-07
-1.750000e+00 -1.617736e-07
-1.700000e+00 -2.192120e-07
-1.650000e+00 -2.784003e-07
-1.600000e+00 -3.350160e-07
-1.550000e+00 -3.870618e-07
-1.500000e+00 -4.360464e-07
-1.450000e+00 -4.871896e-07
-1.400000e+00 -5.487880e-07
-1.350000e+00 -6.308367e-07
-1.300000e+00 -7.428052e-07
-1.250000e+00 -8.906509e-07
-1.200000e+00 -1.073923e-06
-1.150000e+00 -1.284681e-06
-1.100000e+00 -1.509971e-06
-1.050000e+00 -1.738195e-06
-1.000000e+00 -1.967238e-06
-9.499998e-01 -2.210216e-06
-9.000001e-01 -2.494749e-06
-8.499999e-01 -2.854457e-06
-7.999997e-01 -3.315682e-06
-7.500000e-01 -3.885968e-06
-6.999998e-01 -4.551061e-06
-6.500001e-01 -5.283448e-06
-5.999999e-01 -6.059406e-06
-5.499997e-01 -6.876339e-06
-5.000000e-01 -7.761148e-06
-4.499998e-01 -8.764547e-06
-4.000001e-01 -9.943587e-06
-3.499999e-01 -1.134138e-05
-2.999997e-01 -1.297471e-05
-2.500000e-01 -1.483631e-05
-1.999998e-01 -1.690996e-05
-1.500001e-01 -1.919007e-05
-9.999990e-02 -2.169460e-05
-4.999971e-02 -2.446518e-05
0.000000e+00 -2.755605e-05
5.000019e-02 -3.101995e-05
1.000004e-01 -3.490007e-05
1.500006e-01 -3.923185e-05
1.999998e-01 -4.405206e-05
2.500000e-01 -4.940720e-05
3.000002e-01 -5.535501e-05
3.500004e-01 -6.195805e-05
4.000006e-01 -6.927441e-05
4.499998e-01 -7.735224e-05
5.000000e-01 -8.623312e-05
5.500002e-01 -9.596237e-05
6.000004e-01 -1.066014e-04
6.500006e-01 -1.182348e-04
6.999998e-01 -1.309688e-04
7.500000e-01 -1.449215e-04
8.000002e-01 -1.602088e-04
8.500004e-01 -1.769326e-04
9.000006e-01 -1.951764e-04
9.499998e-01 -2.150093e-04
1.000000e+00 -2.364971e-04
1.050000e+00 -2.597175e-04
1.100000e+00 -2.847698e-04
1.150001e+00 -3.117775e-04
1.200000e+00 -3.408810e-04
1.250000e+00 -3.722237e-04
1.300000e+00 -4.059377e-04
1.350000e+00 -4.421354e-04
1.400001e+00 -4.809096e-04
1.450000e+00 -5.223408e-04
1.500000e+00 -5.665080e-04
1.550000e+00 -6.134969e-04
1.600000e+00 -6.634022e-04
1.650001e+00 -7.163231e-04
1.700000e+00 -7.723546e-04
1.750000e+00 -8.315759e-04
1.800000e+00 -8.940433e-04
1.850000e+00 -9.597884e-04
1.900001e+00 -1.028821e-03
1.950000e+00 -1.101138e-03
2.000000e+00 -1.176724e-03
2.050000e+00 -1.255554e-03
2.100000e+00 -1.337583e-03
2.150001e+00 -1.422744e-03
2.200000e+00 -1.510938e-03
2.250000e+00 -1.602038e-03
2.300000e+00 -1.695886e-03
2.350000e+00 -1.792294e-03
2.400001e+00 -1.891048e-03
2.450000e+00 -1.991892e-03
2.500000e+00 -2.094536e-03
2.550000e+00 -2.198650e-03
2.600000e+00 -2.303872e-03
2.650001e+00 -2.409809e-03
2.700000e+00 -2.516039e-03
2.750000e+00 -2.622104e-03
2.800000e+00 -2.727506e-03
2.850000e+00 -2.831707e-03
2.900001e+00 -2.934127e-03
2.950000e+00 -3.034155e-03
3.000000e+00 -3.131148e-03
3.050000e+00 -3.224437e-03
3.100000e+00 -3.313329e-03
3.150001e+00 -3.397103e-03
3.200000e+00 -3.475022e-03
3.250000e+00 -3.546326e-03
3.300000e+00 -3.610239e-03
3.350000e+00 -3.665976e-03
3.400001e+00 -3.712739e-03
3.450000e+00 -3.749732e-03
3.500000e+00 -3.776169e-03
3.550000e+00 -3.791279e-03
3.600000e+00 -3.794314e-03
3.650001e+00 -3.784547e-03
3.700000e+00 -3.761280e-03
3.750000e+00 -3.723846e-03
3.800000e+00 -3.671620e-03
3.850000e+00 -3.604030e-03
3.900001e+00 -3.520562e-03
3.950000e+00 -3.420767e-03
4.000000e+00 -3.304268e-03
4.050000e+00 -3.170767e-03
4.100000e+00 -3.020050e-03
4.150001e+00 -2.852002e-03
4.200000e+00 -2.666598e-03
4.250000e+00 -2.463918e-03
4.300000e+00 -2.244133e-03
4.350000e+00 -2.007526e-03
4.400001e+00 -1.754488e-03
4.450000e+00 -1.485528e-03
4.500000e+00 -1.201271e-03
4.550000e+00 -9.024556e-04
4.600000e+00 -5.899309e-04
4.650001e+00 -2.646592e-04
4.700000e+00 7.227913e-05
4.750000e+00 4.196845e-04
4.800000e+00 7.762432e-04
4.850000e+00 1.140539e-03
4.900001e+00 1.511064e-03
4.950000e+00 1.886224e-03
5.000000e+00 2.264343e-03
5.050000e+00 2.643665e-03
5.100000e+00 3.022362e-03
5.150001e+00 3.398545e-03
5.200000e+00 3.770278e-03
5.250000e+00 4.135591e-03
5.300000e+00 4.492474e-03
5.350000e+00 4.838900e-03
5.400001e+00 5.172819e-03
5.450000e+00 5.492192e-03
5.500000e+00 5.794994e-03
5.550000e+00 6.079234e-03
5.600000e+00 6.342951e-03
5.650001e+00 6.584233e-03
5.700000e+00 6.801217e-03
5.750000e+00 6.992116e-03
5.800000e+00 7.155223e-03
5.850000e+00 7.288930e-03
5.900001e+00 7.391725e-03
5.950000e+00 7.462184e-03
6.000000e+00 7.498988e-03
6.050000e+00 7.500923e-03
6.100000e+00 7.466906e-03
6.150001e+00 7.395982e-03
6.200000e+00 7.287331e-03
6.250000e+00 7.140265e-03
6.300000e+00 6.954225e-03
6.350000e+00 6.728790e-03
6.400001e+00 6.463674e-03
6.450000e+00 6.158730e-03
6.500000e+00 5.813941e-03
6.550000e+00 5.429414e-03
6.600000e+00 5.005374e-03
6.650001e+00 4.542163e-03
6.700000e+00 4.040256e-03
6.750000e+00 3.500247e-03
6.800000e+00 2.922852e-03
6.850000e+00 2.308894e-03
6.900001e+00 1.659299e-03
6.950000e+00 9.750993e-04
7.000000e+00 2.574301e-04
7.050000e+00 -4.924720e-04
7.100000e+00 -1.273277e-03
7.150001e+00 -2.083571e-03
7.200000e+00 -2.921852e-03
7.250000e+00 -3.786535e-03
7.300000e+00 -4.675929e-03
7.350000e+00 -5.588247e-03
7.400001e+00 -6.521597e-03
7.450000e+00 -7.473988e-03
7.500000e+00 -8.443338e-03
7.550000e+00 -9.427453e-03
7.600000e+00 -1.042405e-02
7.650001e+00 -1.143072e-02
7.700000e+00 -1.244493e-02
7.750000e+00 -1.346406e-02
7.800000e+00 -1.448535e-02
7.850000e+00 -1.550589e-02
7.900001e+00 -1.652268e-02
7.950000e+00 -1.753251e-02
8.000000e+00 -1.853210e-02
8.050001e+00 -1.951798e-02
8.100000e+00 -2.048655e-02
8.150000e+00 -2.143406e-02
8.200001e+00 -2.235662e-02
8.250000e+00 -2.325016e-02
8.300001e+00 -2.411048e-02
8.350000e+00 -2.493325e-02
8.400000e+00 -2.571401e-02
8.450001e+00 -2.644823e-02
8.500000e+00 -2.713125e-02
8.550001e+00 -2.775833e-02
8.600000e+00 -2.832466e-02
8.650000e+00 -2.882539e-02
8.700001e+00 -2.925564e-02
8.750000e+00 -2.961052e-02
8.800001e+00 -2.988519e-02
8.850000e+00 -3.007483e-02
8.900000e+00 -3.017475e-02
8.950001e+00 -3.018037e-02
9.000000e+00 -3.008733e-02
9.050001e+00 -2.989144e-02
9.100000e+00 -2.958878e-02
9.150000e+00 -2.917571e-02
9.200001e+00 -2.864894e-02
9.250000e+00 -2.800554e-02
9.300001e+00 -2.724299e-02
9.350000e+00 -2.635924e-02
9.400000e+00 -2.535273e-02
9.450001e+00 -2.422240e-02
9.500000e+00 -2.296780e-02
9.550001e+00 -2.158906e-02
9.600000e+00 -2.008697e-02
9.650000e+00 -1.846298e-02
9.700001e+00 -1.671927e-02
9.750000e+00 -1.485868e-02
9.800001e+00 -1.288482e-02
9.850000e+00 -1.080202e-02
9.900000e+00 -8.615354e-03
9.950001e+00 -6.330621e-03
1.000000e+01 -3.954350e-03
1.005000e+01 -1.493771e-03
1.010000e+01 1.043182e-03
1.015000e+01 3.647891e-03
1.020000e+01 6.311091e-03
1.025000e+01 9.022916e-03
1.030000e+01 1.177295e-02
1.035000e+01 1.455026e-02
1.040000e+01 1.734350e-02
1.045000e+01 2.014088e-02
1.050000e+01 2.293032e-02
1.055000e+01 2.569949e-02
1.060000e+01 2.843588e-02
1.065000e+01 3.112692e-02
1.070000e+01 3.375997e-02
1.075000e+01 3.632251e-02
1.080000e+01 3.880210e-02
1.085000e+01 4.118660e-02
1.090000e+01 4.346412e-02
1.095000e+01 4.562327e-02
1.100000e+01 4.765308e-02
1.105000e+01 4.954318e-02
1.110000e+01 5.128384e-02
1.115000e+01 5.286603e-02
1.120000e+01 5.428149e-02
1.125000e+01 5.552283e-02
1.130000e+01 5.658353e-02
1.135000e+01 5.745807e-02
1.140000e+01 5.814183e-02
1.145000e+01 5.863129e-02
1.150000e+01 5.892397e-02
1.155000e+01 5.901849e-02
1.160000e+01 5.891456e-02
1.165000e+01 5.861298e-02
1.170000e+01 5.811559e-02
1.175000e+01 5.742533e-02
1.180000e+01 5.654616e-02
1.185000e+01 5.548309e-02
1.190000e+01 5.424206e-02
1.195000e+01 5.283001e-02
1.200000e+01 5.125471e-02
1.205000e+01 4.952476e-02
1.210000e+01 4.764954e-02
1.215000e+01 4.563910e-02
1.220000e+01 4.350412e-02
1.225000e+01 4.125582e-02
1.230000e+01 3.890588e-02
1.235000e+01 3.646630e-02
1.240000e+01 3.394943e-02
1.245000e+01 3.136779e-02
1.250000e+01 2.873399e-02
1.255000e+01 2.606072e-02
1.260000e+01 2.336057e-02
1.265000e+01 2.064603e-02
1.270000e+01 1.792936e-02
1.275000e+01 1.522253e-02
1.280000e+01 1.253716e-02
1.285000e+01 9.884440e-03
1.290000e+01 7.275069e-03
1.295000e+01 4.719190e-03
1.300000e+01 2.226363e-03
1.305000e+01 -1.944929e-04
1.310000e+01 -2.535132e-03
1.315000e+01 -4.788018e-03
1.320000e+01 -6.946353e-03
1.325000e+01 -9.004100e-03
1.330000e+01 -1.095599e-02
1.335000e+01 -1.279751e-02
1.340000e+01 -1.452495e-02
1.345000e+01 -1.613533e-02
1.350000e+01 -1.762644e-02
1.355000e+01 -1.899683e-02
1.360000e+01 -2.024575e-02
1.365000e+01 -2.137314e-02
1.370000e+01 -2.237960e-02
1.375000e+01 -2.326635e-02
1.380000e+01 -2.403520e-02
1.385000e+01 -2.468852e-02
1.390000e+01 -2.522918e-02
1.395000e+01 -2.566054e-02
1.400000e+01 -2.598636e-02
1.405000e+01 -2.621077e-02
1.410000e+01 -2.633824e-02
1.415000e+01 -2.637353e-02
1.420000e+01 -2.632161e-02
1.425000e+01 -2.618766e-02
1.430000e+01 -2.597700e-02
1.435000e+01 -2.569503e-02
1.440000e+01 -2.534724e-02
1.445000e+01 -2.493913e-02
1.450000e+01 -2.447616e-02
1.455000e+01 -2.396378e-02
1.460000e+01 -2.340736e-02
1.465000e+01 -2.281216e-02
1.470000e+01 -2.218329e-02
1.475000e+01 -2.152570e-02
1.480000e+01 -2.084417e-02
1.485000e+01 -2.014327e-02
1.490000e+01 -1.942738e-02
1.495000e+01 -1.870060e-02
1.500000e+01 -1.796686e-02
1.505000e+01 -1.722980e-02
1.510000e+01 -1.649280e-02
1.515000e+01 -1.575902e-02
1.520000e+01 -1.503132e-02
1.525000e+01 -1.431234e-02
1.530000e+01 -1.360444e-02
1.535000e+01 -1.290976e-02
1.540000e+01 -1.223018e-02
1.545000e+01 -1.156737e-02
1.550000e+01 -1.092276e-02
1.555000e+01 -1.029759e-02
1.560000e+01 -9.692888e-03
1.565000e+01 -9.109475e-03
1.570000e+01 -8.547992e-03
1.575000e+01 -8.008892e-03
1.580000e+01 -7.492462e-03
1.585000e+01 -6.998848e-03
1.590000e+01 -6.528063e-03
1.595000e+01 -6.080000e-03
1.600000e+01 -5.654443e-03
1.605000e+01 -5.251075e-03
1.610000e+01 -4.869489e-03
1.615000e+01 -4.509208e-03
1.620000e+01 -4.169697e-03
1.625000e+01 -3.850368e-03
1.630000e+01 -3.550581e-03
1.635000e+01 -3.269657e-03
1.640000e+01 -3.006874e-03
1.645000e+01 -2.761478e-03
1.650000e+01 -2.532701e-03
1.655000e+01 -2.319765e-03
1.660000e+01 -2.121896e-03
1.665000e+01 -1.938320e-03
1.670000e+01 -1.768267e-03
1.675000e+01 -1.610976e-03
1.680000e+01 -1.465701e-03
1.685000e+01 -1.331722e-03
1.690000e+01 -1.208356e-03
1.695000e+01 -1.094947e-03
1.700000e+01 -9.908665e-04
1.705000e+01 -8.954984e-04
1.710000e+01 -8.082372e-04
1.715000e+01 -7.284936e-04
1.720000e+01 -6.557034e-04
1.725000e+01 -5.893367e-04
1.730000e+01 -5.288988e-04
1.735000e+01 -4.739277e-04
1.740000e+01 -4.239881e-04
1.745000e+01 -3.786724e-04
1.750000e+01 -3.376021e-04
1.755000e+01 -3.004309e-04
1.760000e+01 -2.668434e-04
1.765000e+01 -2.365502e-04
1.770000e+01 -2.092789e-04
1.775000e+01 -1.847714e-04
1.780000e+01 -1.627814e-04
1.785000e+01 -1.430787e-04
1.790000e+01 -1.254501e-04
1.795000e+01 -1.097013e-04
1.800000e+01 -9.565485e-05
1.805000e+01 -8.314935e-05
1.810000e+01 -7.203813e-05
1.815000e+01 -6.218892e-05
1.820000e+01 -5.348309e-05
1.825000e+01 -4.581469e-05
1.830000e+01 -3.908903e-05
1.835000e+01 -3.322158e-05
1.840000e+01 -2.813601e-05
1.845000e+01 -2.376178e-05
1.850000e+01 -2.003172e-05
1.855000e+01 -1.688098e-05
1.860000e+01 -1.424801e-05
1.865000e+01 -1.207628e-05
1.870000e+01 -1.031456e-05
1.875000e+01 -8.914571e-06
1.880000e+01 -7.828018e-06
1.885000e+01 -7.006386e-06
1.890000e+01 -6.405241e-06
1.895000e+01 -5.990492e-06
1.900000e+01 -5.741150e-06
1.905000e+01 -5.645014e-06
1.910000e+01 -5.689379e-06
1.915000e+01 -5.853679e-06
1.920000e+01 -6.110017e-06
1.925000e+01 -6.430977e-06
1.930000e+01 -6.797409e-06
1.935000e+01 -7.198388e-06
1.940000e+01 -7.622399e-06
1.945000e+01 -8.047357e-06
1.950000e+01 -8.439425e-06
1.955000e+01 -8.763833e-06
1.960000e+01 -9.000455e-06
1.965000e+01 -9.151677e-06
1.970000e+01 -9.235479e-06
1.975000e+01 -9.268313e-06
1.980000e+01 -9.250767e-06
1.985000e+01 -9.166846e-06
1.990000e+01 -8.996564e-06
1.995000e+01 -8.730917e-06
2.000000e+01 -8.377120e-06
2.005000e+01 -7.950560e-06
2.010000e+01 -7.461162e-06
2.015000e+01 -6.905888e-06
2.020000e+01 -6.273121e-06
2.025000e+01 -5.554586e-06
2.030000e+01 -4.754639e-06
2.035000e+01 -3.889797e-06
2.040000e+01 -2.980029e-06
2.045000e+01 -2.039592e-06
2.050000e+01 -1.074580e-06
2.055000e+01 -8.795940e-08
2.060000e+01 9.130928e-07
2.065000e+01 1.913739e-06
2.070000e+01 2.894091e-06
2.075000e+01 3.835205e-06
2.080000e+01 4.723978e-06
2.085000e+01 5.554287e-06
2.090000e+01 6.324781e-06
2.095000e+01 7.035418e-06
2.100000e+01 7.684574e-06
2.105000e+01 8.267501e-06
2.110000e+01 8.776346e-06
2.115000e+01 9.201654e-06
2.120000e+01 9.534827e-06
2.125000e+01 9.770132e-06
2.130000e+01 9.904848e-06
2.135000e+01 9.937283e-06
2.140000e+01 9.864421e-06
2.145000e+01 9.681600e-06
2.150000e+01 9.385007e-06
2.155000e+01 8.975197e-06
2.160000e+01 8.458562e-06
2.165000e+01 7.845248e-06
2.170000e+01 7.145424e-06
2.175000e+01 6.367290e-06
2.180000e+01 5.518798e-06
2.185000e+01 4.611165e-06
2.190000e+01 3.660033e-06
2.195000e+01 2.681957e-06
2.200000e+01 1.688282e-06
2.205000e+01 6.816970e-07
2.210000e+01 -3.407497e-07
2.215000e+01 -1.379725e-06
2.220000e+01 -2.426856e-06
2.225000e+01 -3.464811e-06
2.230000e+01 -4.474374e-06
2.235000e+01 -5.442611e-06
2.240000e+01 -6.365013e-06
2.245000e+01 -7.239448e-06
2.250000e+01 -8.056875e-06
2.255000e+01 -8.797020e-06
2.260000e+01 -9.433569e-06
2.265000e+01 -9.945735e-06
2.270000e+01 -1.032765e-05
2.275000e+01 -1.058837e-05
2.280000e+01 -1.074257e-05
2.285000e+01 -1.079918e-05
2.290000e+01 -1.075654e-05
2.295000e+01 -1.060739e-05
2.300000e+01 -1.034871e-05
2.305000e+01 -9.988021e-06
2.310000e+01 -9.540202e-06
2.315000e+01 -9.017325e-06
2.320000e+01 -8.419364e-06
2.325000e+01 -7.733657e-06
2.330000e+01 -6.944208e-06
2.335000e+01 -6.044482e-06
2.340000e+01 -5.044677e-06
2.345000e+01 -3.968678e-06
2.350000e+01 -2.843612e-06
2.355000e+01 -1.690077e-06
2.360000e+01 -5.198982e-07
2.365000e+01 6.582327e-07
2.370000e+01 1.831132e-06
2.375000e+01 2.978650e-06
2.380000e+01 4.078780e-06
2.385000e+01 5.116236e-06
2.390000e+01 6.087372e-06
2.395000e+01 6.997258e-06
2.400000e+01 7.851054e-06
2.405000e+01 8.646252e-06
2.410000e+01 9.371477e-06
2.415000e+01 1.001199e-05
2.420000e+01 1.055682e-05
2.425000e+01 1.100149e-05
2.430000e+01 1.134438e-05
2.435000e+01 1.158023e-05
2.440000e+01 1.169664e-05
2.445000e+01 1.167703e-05
2.450000e+01 1.150827e-05
2.455000e+01 1.118773e-05
2.460000e+01 1.072502e-05
2.465000e+01 1.013775e-05
2.470000e+01 9.444607e-06
2.475000e+01 8.660471e-06
2.480000e+01 7.795857e-06
2.485000e+01 6.859636e-06
2.490000e+01 5.861655e-06
2.495000e+01 4.812618e-06
2.500000e+01 3.721115e-06
2.505000e+01 2.590271e-06
2.510000e+01 1.417177e-06
2.515000e+01 1.965050e-07
2.520000e+01 -1.073271e-06
2.525000e+01 -2.384736e-06
2.530000e+01 -3.720947e-06
2.535000e+01 -5.060017e-06
2.540000e+01 -6.381981e-06
2.545000e+01 -7.673315e-06
2.550000e+01 -8.926183e-06
2.555000e+01 -1.013362e-05
2.560000e+01 -1.128524e-05
2.565000e+01 -1.236789e-05
2.570000e+01 -1.337161e-05
2.575000e+01 -1.429647e-05
2.580000e+01 -1.515451e-05
2.585000e+01 -1.596459e-05
2.590000e+01 -1.674368e-05
2.595000e+01 -1.750138e-05
2.600000e+01 -1.824185e-05
2.605000e+01 -1.897103e-05
2.610000e+01 -1.970245e-05
2.615000e+01 -2.045599e-05
2.620000e+01 -2.125035e-05
2.625000e+01 -2.209612e-05
2.630000e+01 -2.299634e-05
2.635000e+01 -2.395551e-05
2.640000e+01 -2.499115e-05
2.645000e+01 -2.613923e-05
2.650000e+01 -2.744975e-05
2.655000e+01 -2.897665e-05
2.660000e+01 -3.076977e-05
2.665000e+01 -3.287423e-05
2.670000e+01 -3.533538e-05
2.675000e+01 -3.820318e-05
2.680000e+01 -4.153101e-05
2.685000e+01 -4.536968e-05
2.690000e+01 -4.976275e-05
2.695000e+01 -5.474780e-05
2.700000e+01 -6.036386e-05
2.705000e+01 -6.665942e-05
2.710000e+01 -7.369554e-05
2.715000e+01 -8.154269e-05
2.720000e+01 -9.027459e-05
2.725000e+01 -9.996450e-05
2.730000e+01 -1.106856e-04
2.735000e+01 -1.225135e-04
2.740000e+01 -1.355272e-04
2.745000e+01 -1.498060e-04
2.750000e+01 -1.654255e-04
2.755000e+01 -1.824536e-04
2.760000e+01 -2.009523e-04
2.765000e+01 -2.209800e-04
2.770000e+01 -2.425957e-04
2.775000e+01 -2.658606e-04
2.780000e+01 -2.908363e-04
2.785000e+01 -3.175841e-04
2.790000e+01 -3.461619e-04
2.795000e+01 -3.766250e-04
2.800000e+01 -4.090260e-04
2.805000e+01 -4.434159e-04
2.810000e+01 -4.798438e-04
2.815000e+01 -5.183546e-04
2.820000e+01 -5.589855e-04
2.825000e+01 -6.017605e-04
2.830000e+01 -6.466882e-04
2.835000e+01 -6.937591e-04
2.840000e+01 -7.429501e-04
2.845000e+01 -7.942273e-04
2.850000e+01 -8.475478e-04
2.855000e+01 -9.028575e-04
2.860000e+01 -9.600882e-04
2.865000e+01 -1.019156e-03
2.870000e+01 -1.079963e-03
2.875000e+01 -1.142398e-03
2.880000e+01 -1.206344e-03
2.885000e+01 -1.271664e-03
2.890000e+01 -1.338205e-03
2.895000e+01 -1.405779e-03
2.900000e+01 -1.474170e-03
2.905000e+01 -1.543137e-03
2.910000e+01 -1.612419e-03
2.915000e+01 -1.681743e-03
2.920000e+01 -1.750815e-03
2.925000e+01 -1.819324e-03
2.930000e+01 -1.886932e-03
2.935000e+01 -1.953283e-03
2.940000e+01 -2.018005e-03
2.945000e+01 -2.080716e-03
