-8.000000e+00 0.000000e+00
-7.990000e+00 0.000000e+00
-7.980000e+00 0.000000e+00
-7.970000e+00 0.000000e+00
-7.960000e+00 0.000000e+00
-7.950000e+00 0.000000e+00
-7.940000e+00 0.000000e+00
-7.930000e+00 0.000000e+00
-7.920000e+00 0.000000e+00
-7.910000e+00 0.000000e+00
-7.900000e+00 0.000000e+00
-7.890000e+00 0.000000e+00
-7.880000e+00 0.000000e+00
-7.870000e+00 0.000000e+00
-7.860000e+00 0.000000e+00
-7.850000e+00 0.000000e+00
-7.840000e+00 0.000000e+00
-7.830000e+00 0.000000e+00
-7.820000e+00 0.000000e+00
-7.810000e+00 0.000000e+00
-7.800000e+00 0.000000e+00
-7.790000e+00 0.000000e+00
-7.780000e+00 0.000000e+00
-7.770000e+00 0.000000e+00
-7.760000e+00 0.000000e+00
-7.750000e+00 0.000000e+00
-7.740000e+00 0.000000e+00
-7.730000e+00 0.000000e+00
-7.720000e+00 0.000000e+00
-7.710000e+00 0.000000e+00
-7.700000e+00 0.000000e+00
-7.690000e+00 0.000000e+00
-7.680000e+00 0.000000e+00
-7.670000e+00 0.000000e+00
-7.660000e+00 0.000000e+00
-7.650000e+00 0.000000e+00
-7.640000e+00 0.000000e+00
-7.630000e+00 0.000000e+00
-7.620000e+00 0.000000e+00
-7.610000e+00 0.000000e+00
-7.600000e+00 0.000000e+00
-7.590000e+00 0.000000e+00
-7.580000e+00 0.000000e+00
-7.570000e+00 0.000000e+00
-7.560000e+00 0.000000e+00
-7.550000e+00 0.000000e+00
-7.540000e+00 0.000000e+00
-7.530000e+00 0.000000e+00
-7.520000e+00 0.000000e+00
-7.510000e+00 0.000000e+00
-7.500000e+00 0.000000e+00
-7.490000e+00 0.000000e+00
-7.480000e+00 0.000000e+00
-7.470000e+00 0.000000e+00
-7.460000e+00 0.000000e+00
-7.450000e+00 0.000000e+00
-7.440000e+00 0.000000e+00
-7.430000e+00 0.000000e+00
-7.420000e+00 0.000000e+00
-7.410000e+00 0.000000e+00
-7.400000e+00 0.000000e+00
-7.390000e+00 0.000000e+00
-7.380000e+00 0.000000e+00
-7.370000e+00 0.000000e+00
-7.360000e+00 0.000000e+00
-7.350000e+00 0.000000e+00
-7.340000e+00 0.000000e+00
-7.330000e+00 0.000000e+00
-7.320000e+00 0.000000e+00
-7.310000e+00 0.000000e+00
-7.300000e+00 0.000000e+00
-7.290000e+00 0.000000e+00
-7.280000e+00 0.000000e+00
-7.270000e+00 0.000000e+00
-7.260000e+00 0.000000e+00
-7.250000e+00 0.000000e+00
-7.240000e+00 0.000000e+00
-7.230000e+00 0.000000e+00
-7.220000e+00 0.000000e+00
-7.210000e+00 0.000000e+00
-7.200000e+00 0.000000e+00
-7.190000e+00 0.000000e+00
-7.180000e+00 0.000000e+00
-7.170000e+00 1.401298e-45
-7.160000e+00 1.401298e-45
-7.150000e+00 2.802597e-45
-7.140000e+00 4.203895e-45
-7.130000e+00 5.605194e-45
-7.120000e+00 1.121039e-44
-7.110000e+00 1.681558e-44
-7.100000e+00 2.382207e-44
-7.090000e+00 3.363116e-44
-7.080000e+00 4.624285e-44
-7.070000e+00 6.726233e-44
-7.060000e+00 9.528830e-44
-7.050000e+00 1.317221e-43
-7.040000e+00 1.793662e-43
-7.030000e+00 2.410233e-43
-7.020000e+00 3.222986e-43
-7.010000e+00 4.315999e-43
-7.000000e+00 5.829402e-43
-6.990000e+00 7.791219e-43
-6.980000e+00 1.041165e-42
-6.970000e+00 1.387285e-42
-6.960000e+00 1.841306e-42
-6.950000e+00 2.429852e-42
-6.940000e+00 3.193559e-42
-6.930000e+00 4.174468e-42
-6.920000e+00 5.431433e-42
-6.910000e+00 7.035920e-42
-6.900000e+00 9.070605e-42
-6.890000e+00 1.164059e-41
-6.880000e+00 1.486217e-41
-6.870000e+00 1.888390e-41
-6.860000e+00 2.388093e-41
-6.850000e+00 3.005785e-41
-6.840000e+00 3.764588e-41
-6.830000e+00 4.692248e-41
-6.820000e+00 5.818892e-41
-6.810000e+00 7.180674e-41
-6.800000e+00 8.816550e-41
-6.790000e+00 1.077010e-40
-6.780000e+00 1.308841e-40
-6.770000e+00 1.582234e-40
-6.760000e+00 1.902459e-40
-6.750000e+00 2.274980e-40
-6.740000e+00 2.705151e-40
-6.730000e+00 3.198071e-40
-6.720000e+00 3.758254e-40
-6.710000e+00 4.389189e-40
-6.700000e+00 5.093033e-40
-6.690000e+00 5.869871e-40
-6.680000e+00 6.717096e-40
-6.670000e+00 7.628669e-40
-6.660000e+00 8.594079e-40
-6.650000e+00 9.597577e-40
-6.640000e+00 1.061671e-39
-6.630000e+00 1.162144e-39
-6.620000e+00 1.257262e-39
-6.610000e+00 1.342064e-39
-6.600000e+00 1.410424e-39
-6.590000e+00 1.454912e-39
-6.580000e+00 1.466684e-39
-6.570000e+00 1.435396e-39
-6.560000e+00 1.349131e-39
-6.550000e+00 1.194386e-39
-6.540000e+00 9.561298e-40
-6.530000e+00 6.179180e-40
-6.520000e+00 1.620966e-40
-6.510000e+00 -4.298721e-40
-6.500000e+00 -1.176951e-39
-6.490000e+00 -2.097936e-39
-6.480000e+00 -3.210698e-39
-6.470000e+00 -4.531213e-39
-6.460000e+00 -6.072457e-39
-6.450000e+00 -7.843042e-39
-6.440000e+00 -9.845698e-39
-6.430000e+00 -1.207551e-38
-6.420000e+00 -1.451802e-38
-6.410000e+00 -1.714718e-38
-6.400000e+00 -1.992316e-38
-6.390000e+00 -2.279013e-38
-6.380000e+00 -2.567413e-38
-6.370000e+00 -2.848094e-38
-6.360000e+00 -3.109431e-38
-6.350000e+00 -3.337457e-38
-6.340000e+00 -3.515763e-38
-6.330000e+00 -3.625489e-38
-6.320000e+00 -3.645391e-38
-6.310000e+00 -3.552026e-38
-6.300000e+00 -3.320063e-38
-6.290000e+00 -2.922745e-38
-6.280000e+00 -2.332531e-38
-6.270000e+00 -1.521910e-38
-6.260000e+00 -4.644413e-39
-6.250000e+00 8.640234e-39
-6.240000e+00 2.483876e-38
-6.230000e+00 4.410093e-38
-6.220000e+00 6.650382e-38
-6.210000e+00 9.203153e-38
-6.200000e+00 1.205537e-37
-6.190000e+00 1.518029e-37
-6.180000e+00 1.853530e-37
-6.170000e+00 2.205967e-37
-6.160000e+00 2.567263e-37
-6.150000e+00 2.927171e-37
-6.140000e+00 3.273142e-37
-6.130000e+00 3.590271e-37
-6.120000e+00 3.861296e-37
-6.110000e+00 4.066700e-37
-6.100000e+00 4.184916e-37
-6.090000e+00 4.192655e-37
-6.080000e+00 4.065371e-37
-6.070000e+00 3.777879e-37
-6.060000e+00 3.305121e-37
-6.050000e+00 2.623114e-37
-6.040000e+00 1.710046e-37
-6.030000e+00 5.475231e-38
-6.020000e+00 -8.780158e-38
-6.010000e+00 -2.573794e-37
-6.000000e+00 -4.539095e-37
-5.990000e+00 -6.763614e-37
-5.980000e+00 -9.225831e-37
-5.970000e+00 -1.189146e-36
-5.960000e+00 -1.471202e-36
-5.950000e+00 -1.762371e-36
-5.940000e+00 -2.054653e-36
-5.930000e+00 -2.338390e-36
-5.920000e+00 -2.602274e-36
-5.910000e+00 -2.833424e-36
-5.900000e+00 -3.017537e-36
-5.890000e+00 -3.139111e-36
-5.880000e+00 -3.181770e-36
-5.870000e+00 -3.128675e-36
-5.860000e+00 -2.963043e-36
-5.850000e+00 -2.668747e-36
-5.840000e+00 -2.231036e-36
-5.830000e+00 -1.637310e-36
-5.820000e+00 -8.779994e-37
-5.810000e+00 5.252979e-38
-5.800000e+00 1.155018e-36
-5.790000e+00 2.424371e-36
-5.780000e+00 3.848738e-36
-5.770000e+00 5.408686e-36
-5.760000e+00 7.076471e-36
-5.750000e+00 8.815502e-36
-5.740000e+00 1.058002e-35
-5.730000e+00 1.231503e-35
-5.720000e+00 1.395663e-35
-5.710000e+00 1.543260e-35
-5.700000e+00 1.666354e-35
-5.690000e+00 1.756439e-35
-5.680000e+00 1.804641e-35
-5.670000e+00 1.801977e-35
-5.660000e+00 1.739644e-35
-5.650000e+00 1.609376e-35
-5.640000e+00 1.403822e-35
-5.630000e+00 1.116974e-35
-5.620000e+00 7.446104e-36
-5.610000e+00 2.847572e-36
-5.600000e+00 -2.618568e-36
-5.590000e+00 -8.913619e-36
-5.580000e+00 -1.596349e-35
-5.570000e+00 -2.365531e-35
-5.560000e+00 -3.183492e-35
-5.550000e+00 -4.030536e-35
-5.540000e+00 -4.882672e-35
-5.530000e+00 -5.711750e-35
-5.520000e+00 -6.485773e-35
-5.510000e+00 -7.169392e-35
-5.500000e+00 -7.724626e-35
-5.490000e+00 -8.111765e-35
-5.480000e+00 -8.290515e-35
-5.470000e+00 -8.221340e-35
-5.460000e+00 -7.866994e-35
-5.450000e+00 -7.194219e-35
-5.440000e+00 -6.175593e-35
-5.430000e+00 -4.791440e-35
-5.420000e+00 -3.031787e-35
-5.410000e+00 -8.982877e-36
-5.400000e+00 1.593989e-35
-5.390000e+00 4.414943e-35
-5.380000e+00 7.518132e-35
-5.370000e+00 1.083984e-34
-5.360000e+00 1.429862e-34
-5.350000e+00 1.779541e-34
-5.340000e+00 2.121433e-34
-5.330000e+00 2.442420e-34
-5.320000e+00 2.728082e-34
-5.310000e+00 2.963019e-34
-5.300000e+00 3.131246e-34
-5.290000e+00 3.216689e-34
-5.280000e+00 3.203741e-34
-5.270000e+00 3.077911e-34
-5.260000e+00 2.826523e-34
-5.250000e+00 2.439458e-34
-5.240000e+00 1.909922e-34
-5.230000e+00 1.235221e-34
-5.220000e+00 4.174975e-35
-5.210000e+00 -5.355893e-35
-5.200000e+00 -1.610277e-34
-5.190000e+00 -2.786246e-34
-5.180000e+00 -4.036331e-34
-5.170000e+00 -5.326450e-34
-5.160000e+00 -6.615752e-34
-5.150000e+00 -7.857069e-34
-5.140000e+00 -8.997651e-34
-5.130000e+00 -9.980220e-34
-5.120000e+00 -1.074439e-33
-5.110000e+00 -1.122839e-33
-5.100000e+00 -1.137116e-33
-5.090000e+00 -1.111467e-33
-5.080000e+00 -1.040667e-33
-5.070000e+00 -9.203457e-34
-5.060000e+00 -7.472956e-34
-5.050000e+00 -5.197766e-34
-5.040000e+00 -2.378197e-34
-5.030000e+00 9.648525e-35
-5.020000e+00 4.787331e-34
-5.010000e+00 9.019889e-34
-5.000000e+00 1.356632e-33
-4.990000e+00 1.830277e-33
-4.980000e+00 2.307782e-33
-4.970000e+00 2.771363e-33
-4.960000e+00 3.200827e-33
-4.950000e+00 3.573931e-33
-4.940000e+00 3.866879e-33
-4.930000e+00 4.054975e-33
-4.920000e+00 4.113397e-33
-4.910000e+00 4.018127e-33
-4.900000e+00 3.747004e-33
-4.890000e+00 3.280893e-33
-4.880000e+00 2.604932e-33
-4.870000e+00 1.709850e-33
-4.860000e+00 5.932789e-34
-4.850000e+00 -7.389325e-34
-4.840000e+00 -2.271517e-33
-4.830000e+00 -3.978714e-33
-4.820000e+00 -5.823414e-33
-4.810000e+00 -7.756574e-33
-4.800000e+00 -9.716979e-33
-4.790000e+00 -1.163146e-32
-4.780000e+00 -1.341555e-32
-4.770000e+00 -1.497476e-32
-4.760000e+00 -1.620637e-32
-4.750000e+00 -1.700200e-32
-4.740000e+00 -1.725072e-32
-4.730000e+00 -1.684294e-32
-4.720000e+00 -1.567486e-32
-4.710000e+00 -1.365362e-32
-4.700000e+00 -1.070288e-32
-4.690000e+00 -6.768824e-33
-4.680000e+00 -1.826425e-33
-4.670000e+00 4.114279e-33
-4.660000e+00 1.100209e-32
-4.650000e+00 1.873902e-32
-4.640000e+00 2.717541e-32
-4.630000e+00 3.610619e-32
-4.620000e+00 4.526859e-32
-4.610000e+00 5.434153e-32
-4.600000e+00 6.294749e-32
-4.590000e+00 7.065648e-32
-4.580000e+00 7.699319e-32
-4.570000e+00 8.144706e-32
-4.560000e+00 8.348563e-32
-4.550000e+00 8.257120e-32
-4.540000e+00 7.818110e-32
-4.530000e+00 6.983074e-32
-4.520000e+00 5.709983e-32
-4.510000e+00 3.966094e-32
-4.500000e+00 1.730974e-32
-4.490000e+00 -1.000382e-32
-4.480000e+00 -4.214461e-32
-4.470000e+00 -7.876272e-32
-4.460000e+00 -1.192669e-31
-4.450000e+00 -1.628024e-31
-4.440000e+00 -2.082345e-31
-4.430000e+00 -2.541411e-31
-4.420000e+00 -2.988138e-31
-4.410000e+00 -3.402713e-31
-4.400000e+00 -3.762855e-31
-4.390000e+00 -4.044230e-31
-4.380000e+00 -4.221007e-31
-4.370000e+00 -4.266596e-31
-4.360000e+00 -4.154538e-31
-4.350000e+00 -3.859564e-31
-4.340000e+00 -3.358804e-31
-4.330000e+00 -2.633116e-31
-4.320000e+00 -1.668529e-31
-4.310000e+00 -4.577424e-32
-4.300000e+00 9.983541e-32
-4.290000e+00 2.689205e-31
-4.280000e+00 4.593214e-31
-4.270000e+00 6.676554e-31
-4.260000e+00 8.892226e-31
-4.250000e+00 1.117947e-30
-4.240000e+00 1.346358e-30
-4.230000e+00 1.565630e-30
-4.220000e+00 1.765669e-30
-4.210000e+00 1.935276e-30
-4.200000e+00 2.062382e-30
-4.190000e+00 2.134348e-30
-4.180000e+00 2.138354e-30
-4.170000e+00 2.061861e-30
-4.160000e+00 1.893141e-30
-4.150000e+00 1.621878e-30
-4.140000e+00 1.239809e-30
-4.130000e+00 7.414206e-31
-4.120000e+00 1.246405e-31
-4.110000e+00 -6.084639e-31
-4.100000e+00 -1.451032e-30
-4.090000e+00 -2.390822e-30
-4.080000e+00 -3.409728e-30
-4.070000e+00 -4.483433e-30
-4.060000e+00 -5.581251e-30
-4.050000e+00 -6.666168e-30
-4.040000e+00 -7.695150e-30
-4.030000e+00 -8.619731e-30
-4.020000e+00 -9.386899e-30
-4.010000e+00 -9.940310e-30
-4.000000e+00 -1.022188e-29
-3.990000e+00 -1.017364e-29
-3.980000e+00 -9.739977e-30
-3.970000e+00 -8.870130e-30
-3.960000e+00 -7.520940e-30
-3.950000e+00 -5.659778e-30
-3.940000e+00 -3.267563e-30
-3.930000e+00 -3.417897e-31
-3.920000e+00 3.100572e-30
-3.910000e+00 7.020419e-30
-3.900000e+00 1.135425e-29
-3.890000e+00 1.601244e-29
-3.880000e+00 2.087823e-29
-3.870000e+00 2.580754e-29
-3.860000e+00 3.062980e-29
-3.850000e+00 3.514993e-29
-3.840000e+00 3.915151e-29
-3.830000e+00 4.240137e-29
-3.820000e+00 4.465543e-29
-3.810000e+00 4.566607e-29
-3.800000e+00 4.519066e-29
-3.790000e+00 4.300143e-29
-3.780000e+00 3.889629e-29
-3.770000e+00 3.271055e-29
-3.760000e+00 2.432901e-29
-3.750000e+00 1.369820e-29
-3.740000e+00 8.383716e-31
-3.730000e+00 -1.414548e-29
-3.720000e+00 -3.105385e-29
-3.710000e+00 -4.958508e-29
-3.700000e+00 -6.933004e-29
-3.690000e+00 -8.977025e-29
-3.680000e+00 -1.102795e-28
-3.670000e+00 -1.301298e-28
-3.660000e+00 -1.485022e-28
-3.650000e+00 -1.645023e-28
-3.640000e+00 -1.771812e-28
-3.630000e+00 -1.855620e-28
-3.620000e+00 -1.886707e-28
-3.610000e+00 -1.855721e-28
-3.600000e+00 -1.754106e-28
-3.590000e+00 -1.574531e-28
-3.580000e+00 -1.311345e-28
-3.570000e+00 -9.610433e-29
-3.560000e+00 -5.227221e-29
-3.550000e+00 1.492078e-31
-3.540000e+00 6.060595e-29
-3.530000e+00 1.281708e-28
-3.520000e+00 2.015208e-28
-3.510000e+00 2.789249e-28
-3.500000e+00 3.582460e-28
-3.490000e+00 4.369565e-28
-3.480000e+00 5.121722e-28
-3.470000e+00 5.807021e-28
-3.460000e+00 6.391191e-28
-3.450000e+00 6.838485e-28
-3.440000e+00 7.112736e-28
-3.430000e+00 7.178621e-28
-3.420000e+00 7.003044e-28
-3.410000e+00 6.556656e-28
-3.400000e+00 5.815470e-28
-3.390000e+00 4.762492e-28
-3.380000e+00 3.389366e-28
-3.370000e+00 1.697923e-28
-3.360000e+00 -2.984053e-29
-3.350000e+00 -2.573386e-28
-3.340000e+00 -5.087087e-28
-3.330000e+00 -7.785320e-28
-3.320000e+00 -1.059956e-27
-3.310000e+00 -1.344731e-27
-3.300000e+00 -1.623310e-27
-3.290000e+00 -1.885002e-27
-3.280000e+00 -2.118196e-27
-3.270000e+00 -2.310638e-27
-3.260000e+00 -2.449788e-27
-3.250000e+00 -2.523221e-27
-3.240000e+00 -2.519092e-27
-3.230000e+00 -2.426636e-27
-3.220000e+00 -2.236709e-27
-3.210000e+00 -1.942340e-27
-3.200000e+00 -1.539286e-27
-3.190000e+00 -1.026562e-27
-3.180000e+00 -4.069316e-28
-3.170000e+00 3.126694e-28
-3.160000e+00 1.120800e-27
-3.150000e+00 2.001299e-27
-3.140000e+00 2.933205e-27
-3.130000e+00 3.890841e-27
-3.120000e+00 4.844080e-27
-3.110000e+00 5.758805e-27
-3.100000e+00 6.597570e-27
-3.090000e+00 7.320481e-27
-3.080000e+00 7.886281e-27
-3.070000e+00 8.253623e-27
-3.060000e+00 8.382542e-27
-3.050000e+00 8.236038e-27
-3.040000e+00 7.781826e-27
-3.030000e+00 6.994105e-27
-3.020000e+00 5.855362e-27
-3.010000e+00 4.358100e-27
-3.000000e+00 2.506486e-27
-2.990000e+00 3.177624e-28
-2.980000e+00 -2.176596e-27
-2.970000e+00 -4.930077e-27
-2.960000e+00 -7.880763e-27
-2.950000e+00 -1.095143e-26
-2.940000e+00 -1.405025e-26
-2.930000e+00 -1.707209e-26
-2.920000e+00 -1.990039e-26
-2.910000e+00 -2.240984e-26
-2.900000e+00 -2.446955e-26
-2.890000e+00 -2.594701e-26
-2.880000e+00 -2.671249e-26
-2.870000e+00 -2.664399e-26
-2.860000e+00 -2.563260e-26
-2.850000e+00 -2.358807e-26
-2.840000e+00 -2.044440e-26
-2.830000e+00 -1.616542e-26
-2.820000e+00 -1.075003e-26
-2.810000e+00 -4.236814e-27
-2.800000e+00 3.292066e-27
-2.790000e+00 1.170800e-26
-2.780000e+00 2.083434e-26
-2.770000e+00 3.044628e-26
-2.760000e+00 4.027240e-26
-2.750000e+00 4.999806e-26
-2.740000e+00 5.927076e-26
-2.730000e+00 6.770743e-26
-2.720000e+00 7.490387e-26
-2.710000e+00 8.044607e-26
-2.700000e+00 8.392338e-26
-2.690000e+00 8.494308e-26
-2.680000e+00 8.314656e-26
-2.670000e+00 7.822607e-26
-2.660000e+00 6.994197e-26
-2.650000e+00 5.813982e-26
-2.640000e+00 4.276682e-26
-2.630000e+00 2.388653e-26
-2.620000e+00 1.691803e-27
-2.610000e+00 -2.348541e-26
-2.600000e+00 -5.116761e-26
-2.590000e+00 -8.072962e-26
-2.580000e+00 -1.114013e-25
-2.570000e+00 -1.422752e-25
-2.560000e+00 -1.723208e-25
-2.550000e+00 -2.004037e-25
-2.540000e+00 -2.253115e-25
-2.530000e+00 -2.457857e-25
-2.520000e+00 -2.605582e-25
-2.510000e+00 -2.683939e-25
-2.500000e+00 -2.681365e-25
-2.490000e+00 -2.587586e-25
-2.480000e+00 -2.394113e-25
-2.470000e+00 -2.094773e-25
-2.460000e+00 -1.686189e-25
-2.450000e+00 -1.168252e-25
-2.440000e+00 -5.445301e-26
-2.430000e+00 1.773986e-26
-2.420000e+00 9.857052e-26
-2.410000e+00 1.864184e-25
-2.400000e+00 2.792261e-25
-2.390000e+00 3.745147e-25
-2.380000e+00 4.694157e-25
-2.370000e+00 5.607197e-25
-2.360000e+00 6.449423e-25
-2.350000e+00 7.184073e-25
-2.340000e+00 7.773466e-25
-2.330000e+00 8.180155e-25
-2.320000e+00 8.368193e-25
-2.310000e+00 8.304535e-25
-2.300000e+00 7.960461e-25
-2.290000e+00 7.313068e-25
-2.280000e+00 6.346736e-25
-2.270000e+00 5.054495e-25
-2.260000e+00 3.439294e-25
-2.250000e+00 1.515092e-25
-2.240000e+00 -6.923145e-26
-2.230000e+00 -3.144741e-25
-2.220000e+00 -5.791423e-25
-2.210000e+00 -8.569206e-25
-2.200000e+00 -1.140319e-24
-2.190000e+00 -1.420784e-24
-2.180000e+00 -1.688852e-24
-2.170000e+00 -1.934360e-24
-2.160000e+00 -2.146700e-24
-2.150000e+00 -2.315111e-24
-2.140000e+00 -2.429021e-24
-2.130000e+00 -2.478415e-24
-2.120000e+00 -2.454226e-24
-2.110000e+00 -2.348743e-24
-2.100000e+00 -2.156022e-24
-2.090000e+00 -1.872275e-24
-2.080000e+00 -1.496251e-24
-2.070000e+00 -1.029555e-24
-2.060000e+00 -4.769221e-25
-2.050000e+00 1.535819e-25
-2.040000e+00 8.504507e-25
-2.030000e+00 1.598729e-24
-2.020000e+00 2.380111e-24
-2.010000e+00 3.173172e-24
-2.000000e+00 3.953711e-24
-1.990000e+00 4.695241e-24
-1.980000e+00 5.369602e-24
-1.970000e+00 5.947693e-24
-1.960000e+00 6.400323e-24
-1.950000e+00 6.699159e-24
-1.940000e+00 6.817745e-24
-1.930000e+00 6.732572e-24
-1.920000e+00 6.424192e-24
-1.910000e+00 5.878276e-24
-1.900000e+00 5.086666e-24
-1.890000e+00 4.048314e-24
-1.880000e+00 2.770095e-24
-1.870000e+00 1.267445e-24
-1.860000e+00 -4.351977e-25
-1.850000e+00 -2.304224e-24
-1.840000e+00 -4.296947e-24
-1.830000e+00 -6.362023e-24
-1.820000e+00 -8.440180e-24
-1.810000e+00 -1.046533e-23
-1.800000e+00 -1.236596e-23
-1.790000e+00 -1.406696e-23
-1.780000e+00 -1.549162e-23
-1.770000e+00 -1.656408e-23
-1.760000e+00 -1.721185e-23
-1.750000e+00 -1.736858e-23
-1.740000e+00 -1.697699e-23
-1.730000e+00 -1.599163e-23
-1.720000e+00 -1.438177e-23
-1.710000e+00 -1.213401e-23
-1.700000e+00 -9.254555e-24
-1.690000e+00 -5.771212e-24
-1.680000e+00 -1.734798e-24
-1.670000e+00 2.780001e-24
-1.660000e+00 7.674526e-24
-1.650000e+00 1.282675e-23
-1.640000e+00 1.809279e-23
-1.630000e+00 2.330927e-23
-1.620000e+00 2.829656e-23
-1.610000e+00 3.286303e-23
-1.600000e+00 3.681001e-23
-1.590000e+00 3.993764e-23
-1.580000e+00 4.205139e-23
-1.570000e+00 4.296908e-23
-1.560000e+00 4.252831e-23
-1.550000e+00 4.059411e-23
-1.540000e+00 3.706639e-23
-1.530000e+00 3.188719e-23
-1.520000e+00 2.504743e-23
-1.510000e+00 1.659246e-23
-1.500000e+00 6.626883e-24
-1.490000e+00 -4.682334e-24
-1.480000e+00 -1.710436e-23
-1.470000e+00 -3.034489e-23
-1.460000e+00 -4.404875e-23
-1.450000e+00 -5.780469e-23
-1.440000e+00 -7.115260e-23
-1.430000e+00 -8.359319e-23
-1.420000e+00 -9.459990e-23
-1.410000e+00 -1.036332e-22
-1.400000e+00 -1.101567e-22
-1.390000e+00 -1.136553e-22
-1.380000e+00 -1.136544e-22
-1.370000e+00 -1.097403e-22
-1.360000e+00 -1.015803e-22
-1.350000e+00 -8.894312e-23
-1.340000e+00 -7.171846e-23
-1.330000e+00 -4.993378e-23
-1.320000e+00 -2.376990e-23
-1.310000e+00 6.427357e-24
-1.300000e+00 4.013927e-23
-1.290000e+00 7.667102e-23
-1.280000e+00 1.151536e-22
-1.270000e+00 1.545517e-22
-1.260000e+00 1.936777e-22
-1.250000e+00 2.312118e-22
-1.240000e+00 2.657293e-22
-1.230000e+00 2.957333e-22
-1.220000e+00 3.196942e-22
-1.210000e+00 3.360946e-22
-1.200000e+00 3.434784e-22
-1.190000e+00 3.405039e-22
-1.180000e+00 3.259994e-22
-1.170000e+00 2.990192e-22
-1.160000e+00 2.588999e-22
-1.150000e+00 2.053132e-22
-1.140000e+00 1.383152e-22
-1.130000e+00 5.838825e-23
-1.120000e+00 -3.352382e-23
-1.110000e+00 -1.359931e-22
-1.100000e+00 -2.470951e-22
-1.090000e+00 -3.644114e-22
-1.080000e+00 -4.850468e-22
-1.070000e+00 -6.056635e-22
-1.060000e+00 -7.225324e-22
-1.050000e+00 -8.316013e-22
-1.040000e+00 -9.285811e-22
-1.030000e+00 -1.009049e-21
-1.020000e+00 -1.068566e-21
-1.010000e+00 -1.102807e-21
-1.000000e+00 -1.107707e-21
-9.900002e-01 -1.079608e-21
-9.800000e-01 -1.015414e-21
-9.700003e-01 -9.127497e-22
-9.600000e-01 -7.701071e-22
-9.500003e-01 -5.869886e-22
-9.400001e-01 -3.640363e-22
-9.300003e-01 -1.031356e-22
-9.200001e-01 1.924984e-22
-9.100003e-01 5.182694e-22
-9.000001e-01 8.681811e-22
-8.900003e-01 1.234857e-21
-8.800001e-01 1.609601e-21
-8.700004e-01 1.982509e-21
-8.600001e-01 2.342614e-21
-8.500004e-01 2.678094e-21
-8.400002e-01 2.976511e-21
-8.299999e-01 3.225102e-21
-8.200002e-01 3.411110e-21
-8.099999e-01 3.522141e-21
-8.000002e-01 3.546557e-21
-7.900000e-01 3.473892e-21
-7.800002e-01 3.295260e-21
-7.700000e-01 3.003779e-21
-7.600002e-01 2.594978e-21
-7.500000e-01 2.067176e-21
-7.400002e-01 1.421818e-21
-7.300000e-01 6.637711e-22
-7.200003e-01 -1.984599e-22
-7.100000e-01 -1.152581e-21
-7.000003e-01 -2.182460e-21
-6.900001e-01 -3.268169e-21
-6.800003e-01 -4.386138e-21
-6.700001e-01 -5.509429e-21
-6.600003e-01 -6.608125e-21
-6.500001e-01 -7.649837e-21
-6.400003e-01 -8.600333e-21
-6.300001e-01 -9.424288e-21
-6.200004e-01 -1.008612e-20
-6.100001e-01 -1.055090e-20
-6.000004e-01 -1.078543e-20
-5.900002e-01 -1.075923e-20
-5.800004e-01 -1.044565e-20
-5.700002e-01 -9.823013e-21
-5.599999e-01 -8.875602e-21
-5.500002e-01 -7.594731e-21
-5.400000e-01 -5.979652e-21
-5.300002e-01 -4.038354e-21
-5.200000e-01 -1.788188e-21
-5.100002e-01 7.436423e-22
-5.000000e-01 3.519860e-21
-4.900002e-01 6.493114e-21
-4.800000e-01 9.606245e-21
-4.700003e-01 1.279283e-20
-4.600000e-01 1.597805e-20
-4.500003e-01 1.907978e-20
-4.400001e-01 2.201009e-20
-4.300003e-01 2.467694e-20
-4.200001e-01 2.698614e-20
-4.100003e-01 2.884366e-20
-4.000001e-01 3.015796e-20
-3.900003e-01 3.084268e-20
-3.800001e-01 3.081921e-20
-3.700004e-01 3.001954e-20
-3.600001e-01 2.838892e-20
-3.500004e-01 2.588846e-20
-3.400002e-01 2.249761e-20
-3.300004e-01 1.821633e-20
-3.200002e-01 1.306699e-20
-3.099999e-01 7.095793e-21
-3.000002e-01 3.738256e-22
-2.900000e-01 -7.002534e-21
-2.800002e-01 -1.491174e-20
-2.700000e-01 -2.320789e-20
-2.600002e-01 -3.172216e-20
-2.500000e-01 -4.026504e-20
-2.400002e-01 -4.862919e-20
-2.300000e-01 -5.659298e-20
-2.200003e-01 -6.392483e-20
-2.100000e-01 -7.038799e-20
-2.000003e-01 -7.574594e-20
-1.900001e-01 -7.976830e-20
-1.800003e-01 -8.223698e-20
-1.700001e-01 -8.295260e-20
-1.600003e-01 -8.174105e-20
-1.500001e-01 -7.845980e-20
-1.400003e-01 -7.300415e-20
-1.300001e-01 -6.531302e-20
-1.200004e-01 -5.537407e-20
-1.100001e-01 -4.322810e-20
-1.000004e-01 -2.897261e-20
-9.000015e-02 -1.276410e-20
-8.000040e-02 5.180736e-21
-7.000017e-02 2.458530e-20
-5.999994e-02 4.511472e-20
-5.000019e-02 6.637912e-20
-3.999996e-02 8.793844e-20
-3.000021e-02 1.093089e-19
-1.999998e-02 1.299710e-19
-1.000023e-02 1.493789e-19
0.000000e+00 1.669714e-19
1.000023e-02 1.821842e-19
1.999950e-02 1.944625e-19
2.999973e-02 2.032757e-19
3.999996e-02 2.081312e-19
5.000019e-02 2.085892e-19
5.999947e-02 2.042775e-19
6.999969e-02 1.949054e-19
7.999992e-02 1.802771e-19
9.000015e-02 1.603032e-19
9.999943e-02 1.350117e-19
1.099997e-01 1.045562e-19
1.199999e-01 6.922213e-20
1.300001e-01 2.942990e-20
1.399994e-01 -1.426415e-20
1.499996e-01 -6.117036e-20
1.599998e-01 -1.104717e-19
1.700001e-01 -1.612329e-19
1.799994e-01 -2.124133e-19
1.899996e-01 -2.628826e-19
1.999998e-01 -3.114407e-19
2.100000e-01 -3.568396e-19
2.200003e-01 -3.978089e-19
2.299995e-01 -4.330829e-19
2.399998e-01 -4.614303e-19
2.500000e-01 -4.816847e-19
2.600002e-01 -4.927761e-19
2.699995e-01 -4.937618e-19
2.799997e-01 -4.838583e-19
2.900000e-01 -4.624691e-19
3.000002e-01 -4.292133e-19
3.099995e-01 -3.839483e-19
3.199997e-01 -3.267912e-19
3.299999e-01 -2.581337e-19
3.400002e-01 -1.786537e-19
3.499994e-01 -8.931960e-20
3.599997e-01 8.610999e-21
3.699999e-01 1.135990e-19
3.800001e-01 2.238391e-19
3.899994e-01 3.372811e-19
3.999996e-01 4.516596e-19
4.099998e-01 5.645291e-19
4.200001e-01 6.733075e-19
4.299994e-01 7.753224e-19
4.399996e-01 8.678662e-19
4.499998e-01 9.482529e-19
4.600000e-01 1.013880e-18
4.700003e-01 1.062292e-18
4.799995e-01 1.091243e-18
4.899998e-01 1.098762e-18
5.000000e-01 1.083216e-18
5.100002e-01 1.043366e-18
5.199995e-01 9.784194e-19
5.299997e-01 8.880819e-19
5.400000e-01 7.725907e-19
5.500002e-01 6.327483e-19
5.599995e-01 4.699377e-19
5.699997e-01 2.861336e-19
5.799999e-01 8.389380e-20
5.900002e-01 -1.336588e-19
5.999994e-01 -3.628673e-19
6.099997e-01 -5.995880e-19
6.199999e-01 -8.392503e-19
6.300001e-01 -1.076929e-18
6.399994e-01 -1.307429e-18
6.499996e-01 -1.525387e-18
6.599998e-01 -1.725367e-18
6.700001e-01 -1.901985e-18
6.799994e-01 -2.050024e-18
6.899996e-01 -2.164558e-18
6.999998e-01 -2.241079e-18
7.100000e-01 -2.275616e-18
7.200003e-01 -2.264858e-18
7.299995e-01 -2.206263e-18
7.399998e-01 -2.098157e-18
7.500000e-01 -1.939828e-18
7.600002e-01 -1.731593e-18
7.699995e-01 -1.474852e-18
7.799997e-01 -1.172128e-18
7.900000e-01 -8.270660e-19
8.000002e-01 -4.444295e-19
8.099995e-01 -3.005940e-20
8.199997e-01 4.091932e-19
8.299999e-01 8.655534e-19
8.400002e-01 1.330439e-18
8.499994e-01 1.794601e-18
8.599997e-01 2.248288e-18
8.699999e-01 2.681419e-18
8.800001e-01 3.083798e-18
8.899994e-01 3.445315e-18
8.999996e-01 3.756176e-18
9.099998e-01 4.007130e-18
9.200001e-01 4.189698e-18
9.299994e-01 4.296402e-18
9.399996e-01 4.320981e-18
9.499998e-01 4.258585e-18
9.600000e-01 4.105968e-18
9.700003e-01 3.861633e-18
9.799995e-01 3.525967e-18
9.899998e-01 3.101322e-18
1.000000e+00 2.592084e-18
1.010000e+00 2.004663e-18
1.020000e+00 1.347475e-18
1.030000e+00 6.308581e-19
1.040000e+00 -1.330590e-19
1.050000e+00 -9.305227e-19
1.059999e+00 -1.746377e-18
1.070000e+00 -2.564326e-18
1.080000e+00 -3.367234e-18
1.090000e+00 -4.137459e-18
1.099999e+00 -4.857217e-18
1.110000e+00 -5.508978e-18
1.120000e+00 -6.075859e-18
1.130000e+00 -6.542034e-18
1.139999e+00 -6.893150e-18
1.150000e+00 -7.116705e-18
1.160000e+00 -7.202441e-18
1.170000e+00 -7.142681e-18
1.179999e+00 -6.932628e-18
1.190000e+00 -6.570611e-18
1.200000e+00 -6.058300e-18
1.210000e+00 -5.400814e-18
1.220000e+00 -4.606792e-18
1.230000e+00 -3.688347e-18
1.240000e+00 -2.660994e-18
1.250000e+00 -1.543418e-18
1.260000e+00 -3.572316e-19
1.270000e+00 8.733984e-19
1.280000e+00 2.122197e-18
1.290000e+00 3.361290e-18
1.300000e+00 4.561782e-18
1.309999e+00 5.694423e-18
1.320000e+00 6.730253e-18
1.330000e+00 7.641365e-18
1.340000e+00 8.401605e-18
1.349999e+00 8.987346e-18
1.360000e+00 9.378176e-18
1.370000e+00 9.557616e-18
1.380000e+00 9.513716e-18
1.389999e+00 9.239639e-18
1.400000e+00 8.734136e-18
1.410000e+00 8.001881e-18
1.420000e+00 7.053716e-18
1.429999e+00 5.906754e-18
1.440000e+00 4.584347e-18
1.450000e+00 3.115787e-18
1.460000e+00 1.536004e-18
1.469999e+00 -1.150109e-19
1.480000e+00 -1.792944e-18
1.490000e+00 -3.450027e-18
1.500000e+00 -5.036079e-18
1.510000e+00 -6.499704e-18
1.520000e+00 -7.789543e-18
1.530000e+00 -8.855741e-18
1.540000e+00 -9.651346e-18
1.550000e+00 -1.013389e-17
1.559999e+00 -1.026683e-17
1.570000e+00 -1.002108e-17
1.580000e+00 -9.376440e-18
1.590000e+00 -8.322880e-18
1.599999e+00 -6.861645e-18
1.610000e+00 -5.006291e-18
1.620000e+00 -2.783314e-18
1.630000e+00 -2.326586e-19
1.639999e+00 2.592199e-18
1.650000e+00 5.624442e-18
1.660000e+00 8.784525e-18
1.670000e+00 1.198109e-17
1.679999e+00 1.511240e-17
1.690000e+00 1.806808e-17
1.700000e+00 2.073127e-17
1.710000e+00 2.298118e-17
1.719999e+00 2.469599e-17
1.730000e+00 2.575603e-17
1.740000e+00 2.604729e-17
1.750000e+00 2.546503e-17
1.760000e+00 2.391766e-17
1.770000e+00 2.133049e-17
1.780000e+00 1.764955e-17
1.790000e+00 1.284534e-17
1.800000e+00 6.916187e-18
1.809999e+00 -1.086821e-19
1.820000e+00 -8.166552e-18
1.830000e+00 -1.715927e-17
1.840000e+00 -2.695174e-17
1.849999e+00 -3.737152e-17
1.860000e+00 -4.820905e-17
1.870000e+00 -5.921905e-17
1.880000e+00 -7.012283e-17
1.889999e+00 -8.061164e-17
1.900000e+00 -9.035122e-17
1.910000e+00 -9.898751e-17
1.920000e+00 -1.061533e-16
1.929999e+00 -1.114760e-16
1.940000e+00 -1.145866e-16
1.950000e+00 -1.151290e-16
1.960000e+00 -1.127703e-16
1.969999e+00 -1.072120e-16
1.980000e+00 -9.820104e-17
1.990000e+00 -8.554075e-17
2.000000e+00 -6.910258e-17
2.010000e+00 -4.883631e-17
2.020000e+00 -2.478012e-17
2.030000e+00 2.930447e-18
2.040000e+00 3.405508e-17
2.050000e+00 6.824315e-17
2.059999e+00 1.050296e-16
2.070000e+00 1.438337e-16
2.080000e+00 1.839603e-16
2.090000e+00 2.246044e-16
2.099999e+00 2.648574e-16
2.110000e+00 3.037179e-16
2.120000e+00 3.401056e-16
2.130000e+00 3.728783e-16
2.139999e+00 4.008515e-16
2.150000e+00 4.228228e-16
2.160000e+00 4.375975e-16
2.170000e+00 4.440178e-16
2.179999e+00 4.409940e-16
2.190000e+00 4.275373e-16
2.200000e+00 4.027932e-16
2.210000e+00 3.660762e-16
2.219999e+00 3.169040e-16
2.230000e+00 2.550297e-16
2.240000e+00 1.804721e-16
2.250000e+00 9.354444e-17
2.260000e+00 -5.123723e-18
2.270000e+00 -1.145657e-16
2.280000e+00 -2.334663e-16
2.290000e+00 -3.601557e-16
2.300000e+00 -4.926106e-16
2.309999e+00 -6.284638e-16
2.320000e+00 -7.650240e-16
2.330000e+00 -8.993028e-16
2.340000e+00 -1.028054e-15
2.349999e+00 -1.147819e-15
2.360000e+00 -1.254987e-15
2.370000e+00 -1.345859e-15
2.380000e+00 -1.416726e-15
2.389999e+00 -1.463948e-15
2.400000e+00 -1.484048e-15
2.410000e+00 -1.473805e-15
2.420000e+00 -1.430350e-15
2.429999e+00 -1.351271e-15
2.440000e+00 -1.234710e-15
2.450000e+00 -1.079459e-15
2.460000e+00 -8.850521e-16
2.469999e+00 -6.518493e-16
2.480000e+00 -3.811090e-16
2.490000e+00 -7.504725e-17
2.500000e+00 2.631196e-16
2.510000e+00 6.291494e-16
2.520000e+00 1.017770e-15
2.530000e+00 1.422699e-15
2.540000e+00 1.836688e-15
2.550000e+00 2.251590e-15
2.559999e+00 2.658458e-15
2.570000e+00 3.047669e-15
2.580000e+00 3.409073e-15
2.590000e+00 3.732169e-15
2.599999e+00 4.006310e-15
2.610000e+00 4.220919e-15
2.620000e+00 4.365740e-15
2.630000e+00 4.431082e-15
2.639999e+00 4.408103e-15
2.650000e+00 4.289071e-15
2.660000e+00 4.067642e-15
2.670000e+00 3.739127e-15
2.679999e+00 3.300749e-15
2.690000e+00 2.751872e-15
2.700000e+00 2.094210e-15
2.710000e+00 1.332008e-15
2.719999e+00 4.721694e-16
2.730000e+00 -4.756604e-16
2.740000e+00 -1.499058e-15
2.750000e+00 -2.582851e-15
2.760000e+00 -3.709204e-15
2.770000e+00 -4.857786e-15
2.780000e+00 -6.005990e-15
2.790000e+00 -7.129228e-15
2.800000e+00 -8.201308e-15
2.809999e+00 -9.194860e-15
2.820000e+00 -1.008184e-14
2.830000e+00 -1.083408e-14
2.840000e+00 -1.142390e-14
2.849999e+00 -1.182474e-14
2.860000e+00 -1.201187e-14
2.870000e+00 -1.196304e-14
2.880000e+00 -1.165921e-14
2.889999e+00 -1.108523e-14
2.900000e+00 -1.023047e-14
2.910000e+00 -9.089455e-15
2.920000e+00 -7.662413e-15
2.929999e+00 -5.955729e-15
2.940000e+00 -3.982325e-15
2.950000e+00 -1.761905e-15
2.960000e+00 6.789059e-16
2.969999e+00 3.306586e-15
2.980000e+00 6.080877e-15
2.990000e+00 8.955113e-15
3.000000e+00 1.187672e-14
3.010000e+00 1.478788e-14
3.020000e+00 1.762636e-14
3.030000e+00 2.032650e-14