-8.000000e+00 0.000000e+00
-7.950000e+00 0.000000e+00
-7.900000e+00 0.000000e+00
-7.850000e+00 0.000000e+00
-7.800000e+00 0.000000e+00
-7.750000e+00 0.000000e+00
-7.700000e+00 -5.638503e-27
-7.650000e+00 -5.395960e-25
-7.600000e+00 -2.445981e-23
-7.550000e+00 -2.915790e-22
-7.500000e+00 -1.810892e-21
-7.450000e+00 -7.239431e-21
-7.400000e+00 -2.034920e-20
-7.350000e+00 -4.102398e-20
-7.300000e+00 -5.453582e-20
-7.250000e+00 -2.166034e-20
-7.200000e+00 1.097919e-19
-7.150000e+00 3.394712e-19
-7.100000e+00 4.886940e-19
-7.050000e+00 1.321578e-19
-7.000000e+00 -1.113281e-18
-6.950000e+00 -2.735823e-18
-6.900000e+00 -2.525332e-18
-6.850000e+00 2.368887e-18
-6.800000e+00 1.112521e-17
-6.750000e+00 1.446774e-17
-6.700000e+00 -2.064250e-18
-6.650000e+00 -4.005677e-17
-6.600000e+00 -6.603758e-17
-6.550000e+00 -1.880310e-17
-6.500000e+00 1.256841e-16
-6.450000e+00 2.652502e-16
-6.400000e+00 1.735933e-16
-6.350000e+00 -3.000990e-16
-6.300000e+00 -9.145720e-16
-6.250000e+00 -9.481919e-16
-6.200000e+00 2.935531e-16
-6.150000e+00 2.493938e-15
-6.100000e+00 3.755156e-15
-6.050000e+00 1.573220e-15
-6.000000e+00 -4.566815e-15
-5.950000e+00 -1.088915e-14
-5.900000e+00 -1.032820e-14
-5.850000e+00 1.933129e-15
-5.800000e+00 2.156125e-14
-5.750000e+00 3.351674e-14
-5.700000e+00 2.072973e-14
-5.650000e+00 -2.015758e-14
-5.600000e+00 -6.791240e-14
-5.550000e+00 -8.344145e-14
-5.500000e+00 -3.575364e-14
-5.450000e+00 6.786557e-14
-5.400000e+00 1.711536e-13
-5.350000e+00 1.925963e-13
-5.300000e+00 7.637070e-14
-5.250000e+00 -1.571918e-13
-5.200000e+00 -3.944076e-13
-5.150000e+00 -4.647725e-13
-5.100000e+00 -2.292158e-13
-5.050000e+00 3.084030e-13
-5.000000e+00 9.230294e-13
-4.950000e+00 1.198369e-12
-4.900000e+00 7.198171e-13
-4.850000e+00 -6.027639e-13
-4.800000e+00 -2.253306e-12
-4.750000e+00 -3.133634e-12
-4.700000e+00 -2.080324e-12
-4.650000e+00 1.238349e-12
-4.600000e+00 5.551087e-12
-4.550000e+00 8.042868e-12
-4.500000e+00 5.682469e-12
-4.450000e+00 -2.508156e-12
-4.400000e+00 -1.349062e-11
-4.350000e+00 -2.026501e-11
-4.300000e+00 -1.507071e-11
-4.250000e+00 4.927971e-12
-4.200000e+00 3.249046e-11
-4.150000e+00 5.014179e-11
-4.100000e+00 3.820071e-11
-4.050000e+00 -1.057777e-11
-4.000000e+00 -7.787820e-11
-3.950000e+00 -1.201416e-10
-3.900000e+00 -9.002572e-11
-3.850000e+00 2.690187e-11
-3.800000e+00 1.827049e-10
-3.750000e+00 2.736418e-10
-3.700000e+00 1.961193e-10
-3.650000e+00 -6.979854e-11
-3.600000e+00 -4.052240e-10
-3.550000e+00 -5.840107e-10
-3.500000e+00 -4.035450e-10
-3.450000e+00 1.489271e-10
-3.400000e+00 8.125671e-10
-3.350000e+00 1.148448e-09
-3.300000e+00 8.033358e-10
-3.250000e+00 -2.046461e-10
-3.200000e+00 -1.387574e-09
-3.150000e+00 -2.003300e-09
-3.100000e+00 -1.508708e-09
-3.050000e+00 2.235513e-11
-3.000000e+00 1.825713e-09
-2.950000e+00 2.838963e-09
-2.900000e+00 2.363867e-09
-2.850000e+00 5.740590e-10
-2.800000e+00 -1.512784e-09
-2.750000e+00 -2.649291e-09
-2.700000e+00 -2.195565e-09
-2.650000e+00 -6.091208e-10
-2.600000e+00 8.025651e-10
-2.550000e+00 7.747372e-10
-2.500000e+00 -9.399531e-10
-2.450000e+00 -3.199030e-09
-2.400000e+00 -4.034436e-09
-2.350000e+00 -1.870527e-09
-2.300000e+00 3.361412e-09
-2.250000e+00 9.956842e-09
-2.200000e+00 1.523538e-08
-2.150000e+00 1.690090e-08
-2.100000e+00 1.404655e-08
-2.050000e+00 7.086520e-09
-2.000000e+00 -3.375928e-09
-1.950000e+00 -1.794852e-08
-1.900000e+00 -3.903376e-08
-1.850000e+00 -6.997880e-08
-1.800000e+00 -1.131415e-07
-1.750000e+00 -1.680546e-07
-1.700000e+00 -2.309653e-07
-1.650000e+00 -2.962560e-07
-1.600000e+00 -3.591057e-07
-1.550000e+00 -4.179886e-07
-1.500000e+00 -4.757745e-07
-1.450000e+00 -5.391042e-07
-1.400000e+00 -6.166895e-07
-1.350000e+00 -7.174794e-07
-1.300000e+00 -8.491427e-07
-1.250000e+00 -1.016666e-06
-1.200000e+00 -1.220822e-06
-1.150000e+00 -1.457062e-06
-1.100000e+00 -1.716308e-06
-1.050000e+00 -1.988935e-06
-1.000000e+00 -2.271504e-06
-9.499998e-01 -2.573286e-06
-9.000001e-01 -2.918253e-06
-8.499999e-01 -3.339645e-06
-7.999997e-01 -3.868191e-06
-7.500000e-01 -4.519505e-06
-6.999998e-01 -5.287931e-06
-6.500001e-01 -6.151497e-06
-5.999999e-01 -7.086754e-06
-5.499997e-01 -8.086451e-06
-5.000000e-01 -9.170751e-06
-4.499998e-01 -1.038590e-05
-4.000001e-01 -1.179086e-05
-3.499999e-01 -1.343874e-05
-2.999997e-01 -1.536252e-05
-2.500000e-01 -1.757190e-05
-1.999998e-01 -2.006213e-05
-1.500001e-01 -2.282951e-05
-9.999990e-02 -2.588584e-05
-4.999971e-02 -2.926516e-05
0.000000e+00 -3.302098e-05
5.000019e-02 -3.721732e-05
1.000004e-01 -4.191913e-05
1.500006e-01 -4.718741e-05
1.999998e-01 -5.308004e-05
2.500000e-01 -5.965581e-05
3.000002e-01 -6.697769e-05
3.500004e-01 -7.511250e-05
4.000006e-01 -8.412790e-05
4.499998e-01 -9.409041e-05
5.000000e-01 -1.050681e-04
5.500002e-01 -1.171378e-04
6.000004e-01 -1.303930e-04
6.500006e-01 -1.449483e-04
6.999998e-01 -1.609358e-04
7.500000e-01 -1.784956e-04
8.000002e-01 -1.977652e-04
8.500004e-01 -2.188737e-04
9.000006e-01 -2.419414e-04
9.499998e-01 -2.670865e-04
1.000000e+00 -2.944322e-04
1.050000e+00 -3.241143e-04
1.100000e+00 -3.562844e-04
1.150001e+00 -3.911115e-04
1.200000e+00 -4.287787e-04
1.250000e+00 -4.694766e-04
1.300000e+00 -5.133939e-04
1.350000e+00 -5.607087e-04
1.400001e+00 -6.115865e-04
1.450000e+00 -6.661827e-04
1.500000e+00 -7.246544e-04
1.550000e+00 -7.871689e-04
1.600000e+00 -8.539056e-04
1.650001e+00 -9.250501e-04
1.700000e+00 -1.000780e-03
1.750000e+00 -1.081256e-03
1.800000e+00 -1.166611e-03
1.850000e+00 -1.256960e-03
1.900001e+00 -1.352402e-03
1.950000e+00 -1.453029e-03
2.000000e+00 -1.558924e-03
2.050000e+00 -1.670163e-03
2.100000e+00 -1.786804e-03
2.150001e+00 -1.908880e-03
2.200000e+00 -2.036390e-03
2.250000e+00 -2.169292e-03
2.300000e+00 -2.307504e-03
2.350000e+00 -2.450907e-03
2.400001e+00 -2.599347e-03
2.450000e+00 -2.752644e-03
2.500000e+00 -2.910589e-03
2.550000e+00 -3.072933e-03
2.600000e+00 -3.239378e-03
2.650001e+00 -3.409576e-03
2.700000e+00 -3.583128e-03
2.750000e+00 -3.759585e-03
2.800000e+00 -3.938454e-03
2.850000e+00 -4.119197e-03
2.900001e+00 -4.301220e-03
2.950000e+00 -4.483882e-03
3.000000e+00 -4.666490e-03
3.050000e+00 -4.848307e-03
3.100000e+00 -5.028555e-03
3.150001e+00 -5.206420e-03
3.200000e+00 -5.381040e-03
3.250000e+00 -5.551512e-03
3.300000e+00 -5.716895e-03
3.350000e+00 -5.876217e-03
3.400001e+00 -6.028481e-03
3.450000e+00 -6.172683e-03
3.500000e+00 -6.307796e-03
3.550000e+00 -6.432785e-03
3.600000e+00 -6.546607e-03
3.650001e+00 -6.648221e-03
3.700000e+00 -6.736598e-03
3.750000e+00 -6.810729e-03
3.800000e+00 -6.869630e-03
3.850000e+00 -6.912343e-03
3.900001e+00 -6.937953e-03
3.950000e+00 -6.945585e-03
4.000000e+00 -6.934425e-03
4.050000e+00 -6.903724e-03
4.100000e+00 -6.852800e-03
4.150001e+00 -6.781046e-03
4.200000e+00 -6.687943e-03
4.250000e+00 -6.573067e-03
4.300000e+00 -6.436096e-03
4.350000e+00 -6.276824e-03
4.400001e+00 -6.095143e-03
4.450000e+00 -5.891060e-03
4.500000e+00 -5.664685e-03
4.550000e+00 -5.416254e-03
4.600000e+00 -5.146121e-03
4.650001e+00 -4.854776e-03
4.700000e+00 -4.542835e-03
4.750000e+00 -4.211039e-03
4.800000e+00 -3.860254e-03
4.850000e+00 -3.491465e-03
4.900001e+00 -3.105776e-03
4.950000e+00 -2.704402e-03
5.000000e+00 -2.288655e-03
5.050000e+00 -1.859940e-03
5.100000e+00 -1.419748e-03
5.150001e+00 -9.696552e-04
5.200000e+00 -5.113145e-04
5.250000e+00 -4.644353e-05
5.300000e+00 4.231918e-04
5.350000e+00 8.957947e-04
5.400001e+00 1.369548e-03
5.450000e+00 1.842625e-03
5.500000e+00 2.313191e-03
5.550000e+00 2.779426e-03
5.600000e+00 3.239536e-03
5.650001e+00 3.691774e-03
5.700000e+00 4.134451e-03
5.750000e+00 4.565954e-03
5.800000e+00 4.984745e-03
5.850000e+00 5.389382e-03
5.900001e+00 5.778538e-03
5.950000e+00 6.151006e-03
6.000000e+00 6.505711e-03
6.050000e+00 6.841711e-03
6.100000e+00 7.158210e-03
6.150001e+00 7.454560e-03
6.200000e+00 7.730276e-03
6.250000e+00 7.985046e-03
6.300000e+00 8.218729e-03
6.350000e+00 8.431353e-03
6.400001e+00 8.623112e-03
6.450000e+00 8.794372e-03
6.500000e+00 8.945659e-03
6.550000e+00 9.077676e-03
6.600000e+00 9.191286e-03
6.650001e+00 9.287510e-03
6.700000e+00 9.367508e-03
6.750000e+00 9.432572e-03
6.800000e+00 9.484123e-03
6.850000e+00 9.523692e-03
6.900001e+00 9.552918e-03
6.950000e+00 9.573519e-03
7.000000e+00 9.587273e-03
7.050000e+00 9.596012e-03
7.100000e+00 9.601608e-03
7.150001e+00 9.605960e-03
7.200000e+00 9.610970e-03
7.250000e+00 9.618525e-03
7.300000e+00 9.630477e-03
7.350000e+00 9.648618e-03
7.400001e+00 9.674674e-03
7.450000e+00 9.710292e-03
7.500000e+00 9.757014e-03
7.550000e+00 9.816266e-03
7.600000e+00 9.889310e-03
7.650001e+00 9.977247e-03
7.700000e+00 1.008102e-02
7.750000e+00 1.020137e-02
7.800000e+00 1.033887e-02
7.850000e+00 1.049388e-02
7.900001e+00 1.066652e-02
7.950000e+00 1.085670e-02
8.000000e+00 1.106410e-02
8.050001e+00 1.128815e-02
8.100000e+00 1.152805e-02
8.150000e+00 1.178274e-02
8.200001e+00 1.205092e-02
8.250000e+00 1.233103e-02
8.300001e+00 1.262126e-02
8.350000e+00 1.291958e-02
8.400000e+00 1.322375e-02
8.450001e+00 1.353131e-02
8.500000e+00 1.383956e-02
8.550001e+00 1.414566e-02
8.600000e+00 1.444655e-02
8.650000e+00 1.473905e-02
8.700001e+00 1.501985e-02
8.750000e+00 1.528550e-02
8.800001e+00 1.553245e-02
8.850000e+00 1.575709e-02
8.900000e+00 1.595574e-02
8.950001e+00 1.612470e-02
9.000000e+00 1.626033e-02
9.050001e+00 1.635899e-02
9.100000e+00 1.641716e-02
9.150000e+00 1.643136e-02
9.200001e+00 1.639830e-02
9.250000e+00 1.631480e-02
9.300001e+00 1.617790e-02
9.350000e+00 1.598484e-02
9.400000e+00 1.573311e-02
9.450001e+00 1.542046e-02
9.500000e+00 1.504497e-02
9.550001e+00 1.460502e-02
9.600000e+00 1.409938e-02
9.650000e+00 1.352717e-02
9.700001e+00 1.288792e-02
9.750000e+00 1.218154e-02
9.800001e+00 1.140837e-02
9.850000e+00 1.056917e-02
9.900000e+00 9.665180e-03
9.950001e+00 8.698052e-03
1.000000e+01 7.669892e-03
1.005000e+01 6.583251e-03
1.010000e+01 5.441106e-03
1.015000e+01 4.246869e-03
1.020000e+01 3.004370e-03
1.025000e+01 1.717845e-03
1.030000e+01 3.919077e-04
1.035000e+01 -9.684726e-04
1.040000e+01 -2.358002e-03
1.045000e+01 -3.771084e-03
1.050000e+01 -5.201857e-03
1.055000e+01 -6.644225e-03
1.060000e+01 -8.091898e-03
1.065000e+01 -9.538436e-03
1.070000e+01 -1.097729e-02
1.075000e+01 -1.240181e-02
1.080000e+01 -1.380537e-02
1.085000e+01 -1.518131e-02
1.090000e+01 -1.652309e-02
1.095000e+01 -1.782424e-02
1.100000e+01 -1.907849e-02
1.105000e+01 -2.027974e-02
1.110000e+01 -2.142217e-02
1.115000e+01 -2.250020e-02
1.120000e+01 -2.350860e-02
1.125000e+01 -2.444250e-02
1.130000e+01 -2.529740e-02
1.135000e+01 -2.606926e-02
1.140000e+01 -2.675449e-02
1.145000e+01 -2.734999e-02
1.150000e+01 -2.785315e-02
1.155000e+01 -2.826192e-02
1.160000e+01 -2.857475e-02
1.165000e+01 -2.879066e-02
1.170000e+01 -2.890918e-02
1.175000e+01 -2.893042e-02
1.180000e+01 -2.885503e-02
1.185000e+01 -2.868417e-02
1.190000e+01 -2.841953e-02
1.195000e+01 -2.806330e-02
1.200000e+01 -2.761818e-02
1.205000e+01 -2.708731e-02
1.210000e+01 -2.647429e-02
1.215000e+01 -2.578313e-02
1.220000e+01 -2.501820e-02
1.225000e+01 -2.418424e-02
1.230000e+01 -2.328626e-02
1.235000e+01 -2.232953e-02
1.240000e+01 -2.131957e-02
1.245000e+01 -2.026206e-02
1.250000e+01 -1.916282e-02
1.255000e+01 -1.802775e-02
1.260000e+01 -1.686284e-02
1.265000e+01 -1.567407e-02
1.270000e+01 -1.446741e-02
1.275000e+01 -1.324878e-02
1.280000e+01 -1.202398e-02
1.285000e+01 -1.079868e-02
1.290000e+01 -9.578384e-03
1.295000e+01 -8.368379e-03
1.300000e+01 -7.173728e-03
1.305000e+01 -5.999247e-03
1.310000e+01 -4.849465e-03
1.315000e+01 -3.728622e-03
1.320000e+01 -2.640634e-03
1.325000e+01 -1.589089e-03
1.330000e+01 -5.772295e-04
1.335000e+01 3.920512e-04
1.340000e+01 1.316221e-03
1.345000e+01 2.193111e-03
1.350000e+01 3.020908e-03
1.355000e+01 3.798149e-03
1.360000e+01 4.523711e-03
1.365000e+01 5.196800e-03
1.370000e+01 5.816953e-03
1.375000e+01 6.384018e-03
1.380000e+01 6.898151e-03
1.385000e+01 7.359794e-03
1.390000e+01 7.769651e-03
1.395000e+01 8.128689e-03
1.400000e+01 8.438089e-03
1.405000e+01 8.699263e-03
1.410000e+01 8.913816e-03
1.415000e+01 9.083522e-03
1.420000e+01 9.210286e-03
1.425000e+01 9.296146e-03
1.430000e+01 9.343223e-03
1.435000e+01 9.353723e-03
1.440000e+01 9.329918e-03
1.445000e+01 9.274129e-03
1.450000e+01 9.188716e-03
1.455000e+01 9.076047e-03
1.460000e+01 8.938484e-03
1.465000e+01 8.778375e-03
1.470000e+01 8.598026e-03
1.475000e+01 8.399704e-03
1.480000e+01 8.185612e-03
1.485000e+01 7.957888e-03
1.490000e+01 7.718584e-03
1.495000e+01 7.469665e-03
1.500000e+01 7.213001e-03
1.505000e+01 6.950361e-03
1.510000e+01 6.683419e-03
1.515000e+01 6.413744e-03
1.520000e+01 6.142797e-03
1.525000e+01 5.871925e-03
1.530000e+01 5.602367e-03
1.535000e+01 5.335248e-03
1.540000e+01 5.071590e-03
1.545000e+01 4.812318e-03
1.550000e+01 4.558255e-03
1.555000e+01 4.310129e-03
1.560000e+01 4.068571e-03
1.565000e+01 3.834119e-03
1.570000e+01 3.607222e-03
1.575000e+01 3.388246e-03
1.580000e+01 3.177474e-03
1.585000e+01 2.975114e-03
1.590000e+01 2.781304e-03
1.595000e+01 2.596118e-03
1.600000e+01 2.419575e-03
1.605000e+01 2.251648e-03
1.610000e+01 2.092269e-03
1.615000e+01 1.941332e-03
1.620000e+01 1.798695e-03
1.625000e+01 1.664185e-03
1.630000e+01 1.537601e-03
1.635000e+01 1.418718e-03
1.640000e+01 1.307284e-03
1.645000e+01 1.203026e-03
1.650000e+01 1.105655e-03
1.655000e+01 1.014868e-03
1.660000e+01 9.303553e-04
1.665000e+01 8.518099e-04
1.670000e+01 7.789258e-04
1.675000e+01 7.113995e-04
1.680000e+01 6.489332e-04
1.685000e+01 5.912347e-04
1.690000e+01 5.380224e-04
1.695000e+01 4.890236e-04
1.700000e+01 4.439738e-04
1.705000e+01 4.026130e-04
1.710000e+01 3.646853e-04
1.715000e+01 3.299409e-04
1.720000e+01 2.981417e-04
1.725000e+01 2.690633e-04
1.730000e+01 2.424952e-04
1.735000e+01 2.182387e-04
1.740000e+01 1.961055e-04
1.745000e+01 1.759190e-04
1.750000e+01 1.575179e-04
1.755000e+01 1.407571e-04
1.760000e+01 1.255066e-04
1.765000e+01 1.116460e-04
1.770000e+01 9.906084e-05
1.775000e+01 8.764212e-05
1.780000e+01 7.728903e-05
1.785000e+01 6.791119e-05
1.790000e+01 5.942784e-05
1.795000e+01 5.176418e-05
1.800000e+01 4.484787e-05
1.805000e+01 3.860902e-05
1.810000e+01 3.298350e-05
1.815000e+01 2.791674e-05
1.820000e+01 2.336428e-05
1.825000e+01 1.928875e-05
1.830000e+01 1.565576e-05
1.835000e+01 1.243219e-05
1.840000e+01 9.587826e-06
1.845000e+01 7.097956e-06
1.850000e+01 4.943824e-06
1.855000e+01 3.109609e-06
1.860000e+01 1.577962e-06
1.865000e+01 3.272255e-07
1.870000e+01 -6.681445e-07
1.875000e+01 -1.435103e-06
1.880000e+01 -1.999810e-06
1.885000e+01 -2.386764e-06
1.890000e+01 -2.618325e-06
1.895000e+01 -2.713246e-06
1.900000e+01 -2.684465e-06
1.905000e+01 -2.538310e-06
1.910000e+01 -2.277074e-06
1.915000e+01 -1.904348e-06
1.920000e+01 -1.429802e-06
1.925000e+01 -8.700209e-07
1.930000e+01 -2.449701e-07
1.935000e+01 4.268323e-07
1.940000e+01 1.130493e-06
1.945000e+01 1.852940e-06
1.950000e+01 2.579551e-06
1.955000e+01 3.293001e-06
1.960000e+01 3.975875e-06
1.965000e+01 4.614860e-06
1.970000e+01 5.202704e-06
1.975000e+01 5.736114e-06
1.980000e+01 6.211632e-06
1.985000e+01 6.623389e-06
1.990000e+01 6.964859e-06
1.995000e+01 7.232806e-06
2.000000e+01 7.429327e-06
2.005000e+01 7.559481e-06
2.010000e+01 7.625973e-06
2.015000e+01 7.625236e-06
2.020000e+01 7.548215e-06
2.025000e+01 7.385253e-06
2.030000e+01 7.131174e-06
2.035000e+01 6.786875e-06
2.040000e+01 6.357062e-06
2.045000e+01 5.847106e-06
2.050000e+01 5.262260e-06
2.055000e+01 4.609783e-06
2.060000e+01 3.901444e-06
2.065000e+01 3.153429e-06
2.070000e+01 2.383026e-06
2.075000e+01 1.604421e-06
2.080000e+01 8.266549e-07
2.085000e+01 5.482929e-08
2.090000e+01 -7.070725e-07
2.095000e+01 -1.454331e-06
2.100000e+01 -2.181780e-06
2.105000e+01 -2.885151e-06
2.110000e+01 -3.561538e-06
2.115000e+01 -4.208119e-06
2.120000e+01 -4.820093e-06
2.125000e+01 -5.389479e-06
2.130000e+01 -5.905596e-06
2.135000e+01 -6.356600e-06
2.140000e+01 -6.731038e-06
2.145000e+01 -7.018977e-06
2.150000e+01 -7.213081e-06
2.155000e+01 -7.309791e-06
2.160000e+01 -7.310116e-06
2.165000e+01 -7.219088e-06
2.170000e+01 -7.043850e-06
2.175000e+01 -6.791625e-06
2.180000e+01 -6.469199e-06
2.185000e+01 -6.084139e-06
2.190000e+01 -5.646073e-06
2.195000e+01 -5.165822e-06
2.200000e+01 -4.652004e-06
2.205000e+01 -4.107393e-06
2.210000e+01 -3.528324e-06
2.215000e+01 -2.908466e-06
2.220000e+01 -2.244710e-06
2.225000e+01 -1.541044e-06
2.230000e+01 -8.077770e-07
2.235000e+01 -5.740387e-08
2.240000e+01 6.989047e-07
2.245000e+01 1.451109e-06
2.250000e+01 2.187128e-06
2.255000e+01 2.890605e-06
2.260000e+01 3.542969e-06
2.265000e+01 4.129266e-06
2.270000e+01 4.643441e-06
2.275000e+01 5.088638e-06
2.280000e+01 5.472082e-06
2.285000e+01 5.798568e-06
2.290000e+01 6.067716e-06
2.295000e+01 6.276730e-06
2.300000e+01 6.425484e-06
2.305000e+01 6.518661e-06
2.310000e+01 6.562421e-06
2.315000e+01 6.558012e-06
2.320000e+01 6.497839e-06
2.325000e+01 6.367728e-06
2.330000e+01 6.154236e-06
2.335000e+01 5.851914e-06
2.340000e+01 5.465665e-06
2.345000e+01 5.007405e-06
2.350000e+01 4.490421e-06
2.355000e+01 3.925895e-06
2.360000e+01 3.323366e-06
2.365000e+01 2.693291e-06
2.370000e+01 2.048356e-06
2.375000e+01 1.401776e-06
2.380000e+01 7.638204e-07
2.385000e+01 1.393326e-07
2.390000e+01 -4.719067e-07
2.395000e+01 -1.072458e-06
2.400000e+01 -1.664175e-06
2.405000e+01 -2.246546e-06
2.410000e+01 -2.816611e-06
2.415000e+01 -3.369493e-06
2.420000e+01 -3.898652e-06
2.425000e+01 -4.395820e-06
2.430000e+01 -4.851127e-06
2.435000e+01 -5.253758e-06
2.440000e+01 -5.592951e-06
2.445000e+01 -5.858970e-06
2.450000e+01 -6.044122e-06
2.455000e+01 -6.144036e-06
2.460000e+01 -6.159091e-06
2.465000e+01 -6.095120e-06
2.470000e+01 -5.962387e-06
2.475000e+01 -5.772788e-06
2.480000e+01 -5.536588e-06
2.485000e+01 -5.260601e-06
2.490000e+01 -4.948613e-06
2.495000e+01 -4.603057e-06
2.500000e+01 -4.225949e-06
2.505000e+01 -3.818027e-06
2.510000e+01 -3.377171e-06
2.515000e+01 -2.898376e-06
2.520000e+01 -2.376605e-06
2.525000e+01 -1.811237e-06
2.530000e+01 -1.209002e-06
2.535000e+01 -5.830824e-07
2.540000e+01 5.103717e-08
2.545000e+01 6.797416e-07
2.550000e+01 1.292455e-06
2.555000e+01 1.879622e-06
2.560000e+01 2.430385e-06
2.565000e+01 2.933162e-06
2.570000e+01 3.379550e-06
2.575000e+01 3.768484e-06
2.580000e+01 4.106694e-06
2.585000e+01 4.404300e-06
2.590000e+01 4.668436e-06
2.595000e+01 4.899603e-06
2.600000e+01 5.093215e-06
2.605000e+01 5.244406e-06
2.610000e+01 5.351513e-06
2.615000e+01 5.415107e-06
2.620000e+01 5.433651e-06
2.625000e+01 5.400128e-06
2.630000e+01 5.303311e-06
2.635000e+01 5.133340e-06
2.640000e+01 4.887535e-06
2.645000e+01 4.572224e-06
2.650000e+01 4.199657e-06
2.655000e+01 3.782992e-06
2.660000e+01 3.333320e-06
2.665000e+01 2.860164e-06
2.670000e+01 2.373469e-06
2.675000e+01 1.883928e-06
2.680000e+01 1.400502e-06
2.685000e+01 9.270448e-07
2.690000e+01 4.611160e-07
2.695000e+01 -3.699653e-09
2.700000e+01 -4.735559e-07
2.705000e+01 -9.511118e-07
2.710000e+01 -1.434921e-06
2.715000e+01 -1.920620e-06
2.720000e+01 -2.401891e-06
2.725000e+01 -2.870223e-06
2.730000e+01 -3.314376e-06
2.735000e+01 -3.721147e-06
2.740000e+01 -4.077800e-06
2.745000e+01 -4.374768e-06
2.750000e+01 -4.606863e-06
2.755000e+01 -4.772665e-06
2.760000e+01 -4.873434e-06
2.765000e+01 -4.913029e-06
2.770000e+01 -4.898623e-06
2.775000e+01 -4.840456e-06
2.780000e+01 -4.749195e-06
2.785000e+01 -4.631818e-06
2.790000e+01 -4.488879e-06
2.795000e+01 -4.315490e-06
2.800000e+01 -4.105462e-06
2.805000e+01 -3.855275e-06
2.810000e+01 -3.564760e-06
2.815000e+01 -3.234438e-06
2.820000e+01 -2.862793e-06
2.825000e+01 -2.446953e-06
2.830000e+01 -1.987071e-06
2.835000e+01 -1.490858e-06
2.840000e+01 -9.739859e-07
2.845000e+01 -4.552421e-07
2.850000e+01 5.023416e-08
2.855000e+01 5.346741e-07
2.860000e+01 9.960287e-07
2.865000e+01 1.433199e-06
2.870000e+01 1.842842e-06
2.875000e+01 2.220543e-06
2.880000e+01 2.564806e-06
2.885000e+01 2.879608e-06
2.890000e+01 3.172491e-06
2.895000e+01 3.449315e-06
2.900000e+01 3.709762e-06
2.905000e+01 3.947070e-06
2.910000e+01 4.151731e-06
2.915000e+01 4.315713e-06
2.920000e+01 4.433894e-06
2.925000e+01 4.502409e-06
2.930000e+01 4.516594e-06
2.935000e+01 4.471365e-06
2.940000e+01 4.364270e-06
2.945000e+01 4.198597e-06
