-8.000000e+00 0.000000e+00
-7.950000e+00 0.000000e+00
-7.900000e+00 0.000000e+00
-7.850000e+00 0.000000e+00
-7.800000e+00 0.000000e+00
-7.750000e+00 0.000000e+00
-7.700000e+00 0.000000e+00
-7.650000e+00 0.000000e+00
-7.600000e+00 0.000000e+00
-7.550000e+00 0.000000e+00
-7.500000e+00 0.000000e+00
-7.450000e+00 0.000000e+00
-7.400000e+00 0.000000e+00
-7.350000e+00 -1.017343e-42
-7.300000e+00 -9.759203e-41
-7.250000e+00 -4.718311e-39
-7.200000e+00 -1.212082e-37
-7.150000e+00 -1.704047e-36
-7.100000e+00 -1.570594e-35
-7.050000e+00 -1.048108e-34
-7.000000e+00 -5.325442e-34
-6.950000e+00 -2.106896e-33
-6.900000e+00 -6.495768e-33
-6.850000e+00 -1.516152e-32
-6.800000e+00 -2.401159e-32
-6.750000e+00 -1.258114e-32
-6.700000e+00 6.165007e-32
-6.650000e+00 2.323679e-31
-6.600000e+00 4.246785e-31
-6.550000e+00 3.278402e-31
-6.500000e+00 -5.608523e-31
-6.450000e+00 -2.427147e-30
-6.400000e+00 -4.132428e-30
-6.350000e+00 -2.474352e-30
-6.300000e+00 6.486603e-30
-6.250000e+00 2.206708e-29
-6.200000e+00 3.038846e-29
-6.150000e+00 1.553833e-30
-6.100000e+00 -8.756171e-29
-6.050000e+00 -1.902889e-28
-6.000000e+00 -1.284636e-28
-5.950000e+00 3.215961e-28
-5.900000e+00 1.037712e-27
-5.850000e+00 1.049533e-27
-5.800000e+00 -1.160210e-27
-5.750000e+00 -5.460182e-27
-5.700000e+00 -6.894552e-27
-5.650000e+00 3.411039e-27
-5.600000e+00 2.701090e-26
-5.550000e+00 4.062058e-26
-5.500000e+00 -2.456006e-27
-5.450000e+00 -1.200475e-25
-5.400000e+00 -2.138509e-25
-5.350000e+00 -6.122669e-26
-5.300000e+00 4.648191e-25
-5.250000e+00 9.985446e-25
-5.200000e+00 5.773177e-25
-5.150000e+00 -1.524071e-24
-5.100000e+00 -4.135156e-24
-5.050000e+00 -3.479437e-24
-5.000000e+00 3.988470e-24
-4.950000e+00 1.521338e-23
-4.900000e+00 1.675355e-23
-4.850000e+00 -6.666010e-24
-4.800000e+00 -4.962914e-23
-4.750000e+00 -6.883578e-23
-4.700000e+00 -5.366638e-24
-4.650000e+00 1.420247e-22
-4.600000e+00 2.480090e-22
-4.550000e+00 1.073603e-22
-4.500000e+00 -3.461851e-22
-4.450000e+00 -7.919184e-22
-4.400000e+00 -5.819664e-22
-4.350000e+00 6.622852e-22
-4.300000e+00 2.240997e-21
-4.250000e+00 2.301348e-21
-4.200000e+00 -6.940779e-22
-4.150000e+00 -5.563157e-21
-4.100000e+00 -7.527145e-21
-4.050000e+00 -1.417330e-21
-4.000000e+00 1.181088e-20
-3.950000e+00 2.114653e-20
-3.900000e+00 1.150842e-20
-3.850000e+00 -2.016702e-20
-3.800000e+00 -5.160841e-20
-3.750000e+00 -4.388382e-20
-3.700000e+00 2.245885e-20
-3.650000e+00 1.092401e-19
-3.600000e+00 1.267509e-19
-3.550000e+00 7.359072e-21
-3.500000e+00 -1.981714e-19
-3.450000e+00 -3.044134e-19
-3.400000e+00 -1.266137e-19
-3.350000e+00 3.002522e-19
-3.300000e+00 6.306005e-19
-3.250000e+00 4.317067e-19
-3.200000e+00 -3.597996e-19
-3.150000e+00 -1.157342e-18
-3.100000e+00 -1.053208e-18
-3.050000e+00 2.935607e-19
-3.000000e+00 1.957189e-18
-2.950000e+00 2.167735e-18
-2.900000e+00 -4.075997e-20
-2.850000e+00 -3.264378e-18
-2.800000e+00 -4.162263e-18
-2.750000e+00 -4.430822e-19
-2.700000e+00 5.804029e-18
-2.650000e+00 8.251105e-18
-2.600000e+00 1.670954e-18
-2.550000e+00 -1.107848e-17
-2.500000e+00 -1.787503e-17
-2.450000e+00 -6.585438e-18
-2.400000e+00 2.039683e-17
-2.350000e+00 4.044718e-17
-2.300000e+00 2.533516e-17
-2.250000e+00 -2.947035e-17
-2.200000e+00 -8.603345e-17
-2.150000e+00 -8.221572e-17
-2.100000e+00 1.380781e-17
-2.050000e+00 1.531162e-16
-2.000000e+00 2.149862e-16
-1.950000e+00 9.416655e-17
-1.900000e+00 -1.862011e-16
-1.850000e+00 -4.367698e-16
-1.800000e+00 -4.072361e-16
-1.750000e+00 8.185987e-18
-1.700000e+00 6.164823e-16
-1.650000e+00 9.778255e-16
-1.600000e+00 6.849789e-16
-1.550000e+00 -2.949558e-16
-1.500000e+00 -1.470754e-15
-1.450000e+00 -2.026779e-15
-1.400000e+00 -1.303597e-15
-1.350000e+00 7.032474e-16
-1.300000e+00 3.123131e-15
-1.250000e+00 4.445908e-15
-1.200000e+00 3.213801e-15
-1.150000e+00 -1.008208e-15
-1.100000e+00 -6.779296e-15
-1.050000e+00 -1.068632e-14
-1.000000e+00 -8.661508e-15
-9.499998e-01 1.236763e-15
-9.000001e-01 1.584021e-14
-8.499999e-01 2.619520e-14
-7.999997e-01 2.146842e-14
-7.500000e-01 -2.987332e-15
-6.999998e-01 -3.802253e-14
-6.500001e-01 -6.066220e-14
-5.999999e-01 -4.609464e-14
-5.499997e-01 1.227832e-14
-5.000000e-01 8.806545e-14
-4.499998e-01 1.279489e-13
-4.000001e-01 8.357572e-14
-3.499999e-01 -4.584207e-14
-2.999997e-01 -1.916585e-13
-2.500000e-01 -2.425924e-13
-1.999998e-01 -1.190089e-13
-1.500001e-01 1.474310e-13
-9.999990e-02 3.937316e-13
-4.999971e-02 4.076715e-13
0.000000e+00 8.636285e-14
5.000019e-02 -4.304980e-13
1.000004e-01 -7.773177e-13
1.500006e-01 -5.807096e-13
1.999998e-01 2.192711e-13
2.500000e-01 1.176205e-12
3.000002e-01 1.498946e-12
3.500004e-01 5.909556e-13
4.000006e-01 -1.327561e-12
4.499998e-01 -3.020852e-12
5.000000e-01 -2.838365e-12
5.500002e-01 2.855022e-14
6.000004e-01 4.418672e-12
6.500006e-01 7.246868e-12
6.999998e-01 5.243007e-12
7.500000e-01 -2.318627e-12
8.000002e-01 -1.178001e-11
8.500004e-01 -1.612828e-11
9.000006e-01 -9.321110e-12
9.499998e-01 8.259221e-12
1.000000e+00 2.727595e-11
1.050000e+00 3.316873e-11
1.100000e+00 1.569049e-11
1.150001e+00 -2.114856e-11
1.200000e+00 -5.658760e-11
1.250000e+00 -6.293188e-11
1.300000e+00 -2.449079e-11
1.350000e+00 4.596477e-11
1.400001e+00 1.069696e-10
1.450000e+00 1.100989e-10
1.500000e+00 3.422309e-11
1.550000e+00 -8.991795e-11
1.600000e+00 -1.865708e-10
1.650001e+00 -1.776399e-10
1.700000e+00 -3.963454e-11
1.750000e+00 1.636708e-10
1.800000e+00 3.039972e-10
1.850000e+00 2.648871e-10
1.900001e+00 2.930401e-11
1.950000e+00 -2.831026e-10
2.000000e+00 -4.689691e-10
2.050000e+00 -3.676074e-10
2.100000e+00 1.394890e-11
2.150001e+00 4.683821e-10
2.200000e+00 6.922448e-10
2.250000e+00 4.812586e-10
2.300000e+00 -1.047240e-10
2.350000e+00 -7.318040e-10
2.400001e+00 -9.749016e-10
2.450000e+00 -5.994066e-10
2.500000e+00 2.413121e-10
2.550000e+00 1.048364e-09
2.600000e+00 1.270577e-09
2.650001e+00 6.809107e-10
2.700000e+00 -4.191086e-10
2.750000e+00 -1.339117e-09
2.800000e+00 -1.434775e-09
2.850000e+00 -5.683851e-10
2.900001e+00 7.322282e-10
2.950000e+00 1.572401e-09
3.000000e+00 1.292580e-09
3.050000e+00 -2.232881e-11
3.100000e+00 -1.508027e-09
3.150001e+00 -2.047463e-09
3.200000e+00 -1.049300e-09
3.250000e+00 1.052631e-09
3.300000e+00 2.970866e-09
3.350000e+00 3.358372e-09
3.400001e+00 1.723149e-09
3.450000e+00 -1.173511e-09
3.500000e+00 -3.755438e-09
3.550000e+00 -4.647245e-09
3.600000e+00 -3.569240e-09
3.650001e+00 -1.456669e-09
3.700000e+00 3.143115e-10
3.750000e+00 1.040000e-09
3.800000e+00 1.282119e-09
3.850000e+00 2.413181e-09
3.900001e+00 5.368728e-09
3.950000e+00 9.532268e-09
4.000000e+00 1.269848e-08
4.050000e+00 1.232732e-08
4.100000e+00 7.290997e-09
4.150001e+00 -1.213876e-09
4.200000e+00 -1.047259e-08
4.250000e+00 -1.843975e-08
4.300000e+00 -2.580404e-08
4.350000e+00 -3.623770e-08
4.400001e+00 -5.424021e-08
4.450000e+00 -8.175100e-08
4.500000e+00 -1.158969e-07
4.550000e+00 -1.498532e-07
4.600000e+00 -1.768554e-07
4.650001e+00 -1.950885e-07
4.700000e+00 -2.101434e-07
4.750000e+00 -2.329187e-07
4.800000e+00 -2.737243e-07
4.850000e+00 -3.360923e-07
4.900001e+00 -4.144429e-07
4.950000e+00 -4.975934e-07
5.000000e+00 -5.763255e-07
5.050000e+00 -6.503138e-07
5.100000e+00 -7.297589e-07
5.150001e+00 -8.303078e-07
5.200000e+00 -9.642838e-07
5.250000e+00 -1.133932e-06
5.300000e+00 -1.331322e-06
5.350000e+00 -1.545274e-06
5.400001e+00 -1.770904e-06
5.450000e+00 -2.015424e-06
5.500000e+00 -2.296131e-06
5.550000e+00 -2.631697e-06
5.600000e+00 -3.032513e-06
5.650001e+00 -3.496668e-06
5.700000e+00 -4.014567e-06
5.750000e+00 -4.579408e-06
5.800000e+00 -5.196713e-06
5.850000e+00 -5.886524e-06
5.900001e+00 -6.676656e-06
5.950000e+00 -7.591235e-06
6.000000e+00 -8.641892e-06
6.050000e+00 -9.827264e-06
6.100000e+00 -1.114113e-05
6.150001e+00 -1.258402e-05
6.200000e+00 -1.417121e-05
6.250000e+00 -1.593264e-05
6.300000e+00 -1.790541e-05
6.350000e+00 -2.012409e-05
6.400001e+00 -2.261447e-05
6.450000e+00 -2.539367e-05
6.500000e+00 -2.847512e-05
6.550000e+00 -3.187450e-05
6.600000e+00 -3.561326e-05
6.650001e+00 -3.971923e-05
6.700000e+00 -4.422605e-05
6.750000e+00 -4.917322e-05
6.800000e+00 -5.460691e-05
6.850000e+00 -6.057909e-05
6.900001e+00 -6.714342e-05
6.950000e+00 -7.434827e-05
7.000000e+00 -8.223122e-05
7.050000e+00 -9.081903e-05
7.100000e+00 -1.001360e-04
7.150001e+00 -1.102166e-04
7.200000e+00 -1.211152e-04
7.250000e+00 -1.329068e-04
7.300000e+00 -1.456758e-04
7.350000e+00 -1.594993e-04
7.400001e+00 -1.744342e-04
7.450000e+00 -1.905159e-04
7.500000e+00 -2.077694e-04
7.550000e+00 -2.262271e-04
7.600000e+00 -2.459406e-04
7.650001e+00 -2.669817e-04
7.700000e+00 -2.894287e-04
7.750000e+00 -3.133496e-04
7.800000e+00 -3.387892e-04
7.850000e+00 -3.657694e-04
7.900001e+00 -3.943008e-04
7.950000e+00 -4.243978e-04
8.000000e+00 -4.560875e-04
8.050001e+00 -4.894073e-04
8.100000e+00 -5.243921e-04
8.150000e+00 -5.610592e-04
8.200001e+00 -5.993995e-04
8.250000e+00 -6.393788e-04
8.300001e+00 -6.809463e-04
8.350000e+00 -7.240454e-04
8.400000e+00 -7.686198e-04
8.450001e+00 -8.146111e-04
8.500000e+00 -8.619517e-04
8.550001e+00 -9.105567e-04
8.600000e+00 -9.603183e-04
8.650000e+00 -1.011105e-03
8.700001e+00 -1.062761e-03
8.750000e+00 -1.115113e-03
8.800001e+00 -1.167967e-03
8.850000e+00 -1.221114e-03
8.900000e+00 -1.274332e-03
8.950001e+00 -1.327385e-03
9.000000e+00 -1.380021e-03
9.050001e+00 -1.431976e-03
9.100000e+00 -1.482961e-03
9.150000e+00 -1.532669e-03
9.200001e+00 -1.580769e-03
9.250000e+00 -1.626913e-03
9.300001e+00 -1.670743e-03
9.350000e+00 -1.711890e-03
9.400000e+00 -1.749975e-03
9.450001e+00 -1.784616e-03
9.500000e+00 -1.815423e-03
9.550001e+00 -1.842006e-03
9.600000e+00 -1.863970e-03
9.650000e+00 -1.880924e-03
9.700001e+00 -1.892472e-03
9.750000e+00 -1.898225e-03
9.800001e+00 -1.897798e-03
9.850000e+00 -1.890821e-03
9.900000e+00 -1.876946e-03
9.950001e+00 -1.855848e-03
1.000000e+01 -1.827226e-03
1.005000e+01 -1.790804e-03
1.010000e+01 -1.746332e-03
1.015000e+01 -1.693592e-03
1.020000e+01 -1.632405e-03
1.025000e+01 -1.562629e-03
1.030000e+01 -1.484161e-03
1.035000e+01 -1.396940e-03
1.040000e+01 -1.300946e-03
1.045000e+01 -1.196215e-03
1.050000e+01 -1.082844e-03
1.055000e+01 -9.609860e-04
1.060000e+01 -8.308529e-04
1.065000e+01 -6.927033e-04
1.070000e+01 -5.468421e-04
1.075000e+01 -3.936247e-04
1.080000e+01 -2.334632e-04
1.085000e+01 -6.683017e-05
1.090000e+01 1.057447e-04
1.095000e+01 2.836795e-04
1.100000e+01 4.663441e-04
1.105000e+01 6.530605e-04
1.110000e+01 8.431022e-04
1.115000e+01 1.035700e-03
1.120000e+01 1.230050e-03
1.125000e+01 1.425332e-03
1.130000e+01 1.620705e-03
1.135000e+01 1.815315e-03
1.140000e+01 2.008276e-03
1.145000e+01 2.198674e-03
1.150000e+01 2.385580e-03
1.155000e+01 2.568064e-03
1.160000e+01 2.745219e-03
1.165000e+01 2.916170e-03
1.170000e+01 3.080068e-03
1.175000e+01 3.236086e-03
1.180000e+01 3.383414e-03
1.185000e+01 3.521275e-03
1.190000e+01 3.648931e-03
1.195000e+01 3.765698e-03
1.200000e+01 3.870943e-03
1.205000e+01 3.964091e-03
1.210000e+01 4.044627e-03
1.215000e+01 4.112110e-03
1.220000e+01 4.166181e-03
1.225000e+01 4.206563e-03
1.230000e+01 4.233051e-03
1.235000e+01 4.245498e-03
1.240000e+01 4.243822e-03
1.245000e+01 4.228012e-03
1.250000e+01 4.198146e-03
1.255000e+01 4.154397e-03
1.260000e+01 4.097024e-03
1.265000e+01 4.026356e-03
1.270000e+01 3.942783e-03
1.275000e+01 3.846754e-03
1.280000e+01 3.738786e-03
1.285000e+01 3.619470e-03
1.290000e+01 3.489458e-03
1.295000e+01 3.349449e-03
1.300000e+01 3.200174e-03
1.305000e+01 3.042401e-03
1.310000e+01 2.876940e-03
1.315000e+01 2.704650e-03
1.320000e+01 2.526422e-03
1.325000e+01 2.343162e-03
1.330000e+01 2.155765e-03
1.335000e+01 1.965118e-03
1.340000e+01 1.772105e-03
1.345000e+01 1.577623e-03
1.350000e+01 1.382571e-03
1.355000e+01 1.187836e-03
1.360000e+01 9.942694e-04
1.365000e+01 8.026802e-04
1.370000e+01 6.138388e-04
1.375000e+01 4.284876e-04
1.380000e+01 2.473399e-04
1.385000e+01 7.106645e-05
1.390000e+01 -9.971959e-05
1.395000e+01 -2.644663e-04
1.400000e+01 -4.226735e-04
1.405000e+01 -5.738811e-04
1.410000e+01 -7.176692e-04
1.415000e+01 -8.536720e-04
1.420000e+01 -9.815934e-04
1.425000e+01 -1.101209e-03
1.430000e+01 -1.212354e-03
1.435000e+01 -1.314903e-03
1.440000e+01 -1.408765e-03
1.445000e+01 -1.493894e-03
1.450000e+01 -1.570303e-03
1.455000e+01 -1.638071e-03
1.460000e+01 -1.697328e-03
1.465000e+01 -1.748237e-03
1.470000e+01 -1.790981e-03
1.475000e+01 -1.825769e-03
1.480000e+01 -1.852853e-03
1.485000e+01 -1.872528e-03
1.490000e+01 -1.885122e-03
1.495000e+01 -1.890968e-03
1.500000e+01 -1.890403e-03
1.505000e+01 -1.883770e-03
1.510000e+01 -1.871437e-03
1.515000e+01 -1.853806e-03
1.520000e+01 -1.831294e-03
1.525000e+01 -1.804311e-03
1.530000e+01 -1.773245e-03
1.535000e+01 -1.738467e-03
1.540000e+01 -1.700348e-03
1.545000e+01 -1.659276e-03
1.550000e+01 -1.615645e-03
1.555000e+01 -1.569835e-03
1.560000e+01 -1.522197e-03
1.565000e+01 -1.473058e-03
1.570000e+01 -1.422736e-03
1.575000e+01 -1.371550e-03
1.580000e+01 -1.319819e-03
1.585000e+01 -1.267839e-03
1.590000e+01 -1.215868e-03
1.595000e+01 -1.164137e-03
1.600000e+01 -1.112862e-03
1.605000e+01 -1.062264e-03
1.610000e+01 -1.012565e-03
1.615000e+01 -9.639718e-04
1.620000e+01 -9.166556e-04
1.625000e+01 -8.707566e-04
1.630000e+01 -8.264007e-04
1.635000e+01 -7.837180e-04
1.640000e+01 -7.428441e-04
1.645000e+01 -7.039065e-04
1.650000e+01 -6.670092e-04
1.655000e+01 -6.322340e-04
1.660000e+01 -5.996560e-04
1.665000e+01 -5.693599e-04
1.670000e+01 -5.414432e-04
1.675000e+01 -5.160022e-04
1.680000e+01 -4.931180e-04
1.685000e+01 -4.728561e-04
1.690000e+01 -4.552810e-04
1.695000e+01 -4.404746e-04
1.700000e+01 -4.285402e-04
1.705000e+01 -4.195923e-04
1.710000e+01 -4.137412e-04
1.715000e+01 -4.110899e-04
1.720000e+01 -4.117450e-04
1.725000e+01 -4.158320e-04
1.730000e+01 -4.235021e-04
1.735000e+01 -4.349250e-04
1.740000e+01 -4.502770e-04
1.745000e+01 -4.697373e-04
1.750000e+01 -4.934936e-04
1.755000e+01 -5.217530e-04
1.760000e+01 -5.547452e-04
1.765000e+01 -5.927173e-04
1.770000e+01 -6.359263e-04
1.775000e+01 -6.846371e-04
1.780000e+01 -7.391300e-04
1.785000e+01 -7.997065e-04
1.790000e+01 -8.666890e-04
1.795000e+01 -9.404119e-04
1.800000e+01 -1.021212e-03
1.805000e+01 -1.109425e-03
1.810000e+01 -1.205394e-03
1.815000e+01 -1.309469e-03
1.820000e+01 -1.422010e-03
1.825000e+01 -1.543383e-03
1.830000e+01 -1.673946e-03
1.835000e+01 -1.814048e-03
1.840000e+01 -1.964029e-03
1.845000e+01 -2.124218e-03
1.850000e+01 -2.294921e-03
1.855000e+01 -2.476414e-03
1.860000e+01 -2.668942e-03
1.865000e+01 -2.872714e-03
1.870000e+01 -3.087906e-03
1.875000e+01 -3.314661e-03
1.880000e+01 -3.553069e-03
1.885000e+01 -3.803162e-03
1.890000e+01 -4.064899e-03
1.895000e+01 -4.338174e-03
1.900000e+01 -4.622807e-03
1.905000e+01 -4.918547e-03
1.910000e+01 -5.225052e-03
1.915000e+01 -5.541874e-03
1.920000e+01 -5.868466e-03
1.925000e+01 -6.204170e-03
1.930000e+01 -6.548239e-03
1.935000e+01 -6.899817e-03
1.940000e+01 -7.257924e-03
1.945000e+01 -7.621447e-03
1.950000e+01 -7.989133e-03
1.955000e+01 -8.359605e-03
1.960000e+01 -8.731375e-03
1.965000e+01 -9.102842e-03
1.970000e+01 -9.472268e-03
1.975000e+01 -9.837772e-03
1.980000e+01 -1.019733e-02
1.985000e+01 -1.054881e-02
1.990000e+01 -1.088996e-02
1.995000e+01 -1.121847e-02
2.000000e+01 -1.153191e-02
2.005000e+01 -1.182775e-02
2.010000e+01 -1.210338e-02
2.015000e+01 -1.235609e-02
2.020000e+01 -1.258317e-02
2.025000e+01 -1.278186e-02
2.030000e+01 -1.294944e-02
2.035000e+01 -1.308313e-02
2.040000e+01 -1.318015e-02
2.045000e+01 -1.323774e-02
2.050000e+01 -1.325324e-02
2.055000e+01 -1.322406e-02
2.060000e+01 -1.314774e-02
2.065000e+01 -1.302194e-02
2.070000e+01 -1.284446e-02
2.075000e+01 -1.261323e-02
2.080000e+01 -1.232642e-02
2.085000e+01 -1.198243e-02
2.090000e+01 -1.157991e-02
2.095000e+01 -1.111776e-02
2.100000e+01 -1.059515e-02
2.105000e+01 -1.001153e-02
2.110000e+01 -9.366697e-03
2.115000e+01 -8.660792e-03
2.120000e+01 -7.894333e-03
2.125000e+01 -7.068198e-03
2.130000e+01 -6.183617e-03
2.135000e+01 -5.242195e-03
2.140000e+01 -4.245938e-03
2.145000e+01 -3.197257e-03
2.150000e+01 -2.098961e-03
2.155000e+01 -9.542310e-04
2.160000e+01 2.333972e-04
2.165000e+01 1.460038e-03
2.170000e+01 2.721445e-03
2.175000e+01 4.013016e-03
2.180000e+01 5.329827e-03
2.185000e+01 6.666668e-03
2.190000e+01 8.018089e-03
2.195000e+01 9.378410e-03
2.200000e+01 1.074174e-02
2.205000e+01 1.210201e-02
2.210000e+01 1.345301e-02
2.215000e+01 1.478845e-02
2.220000e+01 1.610201e-02
2.225000e+01 1.738740e-02
2.230000e+01 1.863831e-02
2.235000e+01 1.984851e-02
2.240000e+01 2.101185e-02
2.245000e+01 2.212237e-02
2.250000e+01 2.317435e-02
2.255000e+01 2.416232e-02
2.260000e+01 2.508108e-02
2.265000e+01 2.592575e-02
2.270000e+01 2.669176e-02
2.275000e+01 2.737498e-02
2.280000e+01 2.797174e-02
2.285000e+01 2.847882e-02
2.290000e+01 2.889346e-02
2.295000e+01 2.921338e-02
2.300000e+01 2.943682e-02
2.305000e+01 2.956255e-02
2.310000e+01 2.958990e-02
2.315000e+01 2.951877e-02
2.320000e+01 2.934960e-02
2.325000e+01 2.908332e-02
2.330000e+01 2.872140e-02
2.335000e+01 2.826584e-02
2.340000e+01 2.771917e-02
2.345000e+01 2.708445e-02
2.350000e+01 2.636516e-02
2.355000e+01 2.556520e-02
2.360000e+01 2.468889e-02
2.365000e+01 2.374090e-02
2.370000e+01 2.272628e-02
2.375000e+01 2.165042e-02
2.380000e+01 2.051892e-02
2.385000e+01 1.933760e-02
2.390000e+01 1.811245e-02
2.395000e+01 1.684958e-02
2.400000e+01 1.555527e-02
2.405000e+01 1.423585e-02
2.410000e+01 1.289764e-02
2.415000e+01 1.154692e-02
2.420000e+01 1.018985e-02
2.425000e+01 8.832519e-03
2.430000e+01 7.480872e-03
2.435000e+01 6.140702e-03
2.440000e+01 4.817573e-03
2.445000e+01 3.516770e-03
2.450000e+01 2.243285e-03
2.455000e+01 1.001821e-03
2.460000e+01 -2.032056e-04
2.465000e+01 -1.367700e-03
2.470000e+01 -2.487936e-03
2.475000e+01 -3.560586e-03
2.480000e+01 -4.582725e-03
2.485000e+01 -5.551791e-03
2.490000e+01 -6.465577e-03
2.495000e+01 -7.322236e-03
2.500000e+01 -8.120313e-03
2.505000e+01 -8.858766e-03
2.510000e+01 -9.536946e-03
2.515000e+01 -1.015454e-02
2.520000e+01 -1.071156e-02
2.525000e+01 -1.120829e-02
2.530000e+01 -1.164536e-02
2.535000e+01 -1.202372e-02
2.540000e+01 -1.234463e-02
2.545000e+01 -1.260957e-02
2.550000e+01 -1.282024e-02
2.555000e+01 -1.297848e-02
2.560000e+01 -1.308635e-02
2.565000e+01 -1.314608e-02
2.570000e+01 -1.316010e-02
2.575000e+01 -1.313093e-02
2.580000e+01 -1.306115e-02
2.585000e+01 -1.295337e-02
2.590000e+01 -1.281026e-02
2.595000e+01 -1.263456e-02
2.600000e+01 -1.242905e-02
2.605000e+01 -1.219650e-02
2.610000e+01 -1.193961e-02
2.615000e+01 -1.166102e-02
2.620000e+01 -1.136329e-02
2.625000e+01 -1.104895e-02
2.630000e+01 -1.072049e-02
2.635000e+01 -1.038031e-02
2.640000e+01 -1.003067e-02
2.645000e+01 -9.673714e-03
2.650000e+01 -9.311440e-03
2.655000e+01 -8.945780e-03
2.660000e+01 -8.578576e-03
2.665000e+01 -8.211541e-03
2.670000e+01 -7.846232e-03
2.675000e+01 -7.484035e-03
2.680000e+01 -7.126203e-03
2.685000e+01 -6.773895e-03
2.690000e+01 -6.428189e-03
2.695000e+01 -6.090058e-03
2.700000e+01 -5.760329e-03
2.705000e+01 -5.439689e-03
2.710000e+01 -5.128703e-03
2.715000e+01 -4.827860e-03
2.720000e+01 -4.537584e-03
2.725000e+01 -4.258216e-03
2.730000e+01 -3.989982e-03
2.735000e+01 -3.733000e-03
2.740000e+01 -3.487306e-03
2.745000e+01 -3.252903e-03
2.750000e+01 -3.029766e-03
2.755000e+01 -2.817828e-03
2.760000e+01 -2.616944e-03
2.765000e+01 -2.426896e-03
2.770000e+01 -2.247413e-03
2.775000e+01 -2.078215e-03
2.780000e+01 -1.919026e-03
2.785000e+01 -1.769553e-03
2.790000e+01 -1.629463e-03
2.795000e+01 -1.498375e-03
2.800000e+01 -1.375894e-03
2.805000e+01 -1.261637e-03
2.810000e+01 -1.155254e-03
2.815000e+01 -1.056404e-03
2.820000e+01 -9.647222e-04
2.825000e+01 -8.798182e-04
2.830000e+01 -8.012900e-04
2.835000e+01 -7.287593e-04
2.840000e+01 -6.618825e-04
2.845000e+01 -6.003355e-04
2.850000e+01 -5.437903e-04
2.855000e+01 -4.919081e-04
2.860000e+01 -4.443572e-04
2.865000e+01 -4.008386e-04
2.870000e+01 -3.610906e-04
2.875000e+01 -3.248708e-04
2.880000e+01 -2.919307e-04
2.885000e+01 -2.620094e-04
2.890000e+01 -2.348511e-04
2.895000e+01 -2.102280e-04
2.900000e+01 -1.879464e-04
2.905000e+01 -1.678298e-04
2.910000e+01 -1.496996e-04
2.915000e+01 -1.333724e-04
2.920000e+01 -1.186777e-04
2.925000e+01 -1.054762e-04
2.930000e+01 -9.365810e-05
2.935000e+01 -8.312075e-05
2.940000e+01 -7.374704e-05
2.945000e+01 -6.540538e-05
