-8.000000e+00 0.000000e+00
-7.950000e+00 0.000000e+00
-7.900000e+00 0.000000e+00
-7.850000e+00 0.000000e+00
-7.800000e+00 0.000000e+00
-7.750000e+00 0.000000e+00
-7.700000e+00 0.000000e+00
-7.650000e+00 0.000000e+00
-7.600000e+00 0.000000e+00
-7.550000e+00 0.000000e+00
-7.500000e+00 0.000000e+00
-7.450000e+00 0.000000e+00
-7.400000e+00 0.000000e+00
-7.350000e+00 0.000000e+00
-7.300000e+00 0.000000e+00
-7.250000e+00 0.000000e+00
-7.200000e+00 0.000000e+00
-7.150000e+00 0.000000e+00
-7.100000e+00 0.000000e+00
-7.050000e+00 0.000000e+00
-7.000000e+00 0.000000e+00
-6.950000e+00 0.000000e+00
-6.900000e+00 0.000000e+00
-6.850000e+00 0.000000e+00
-6.800000e+00 0.000000e+00
-6.750000e+00 0.000000e+00
-6.700000e+00 0.000000e+00
-6.650000e+00 0.000000e+00
-6.600000e+00 0.000000e+00
-6.550000e+00 0.000000e+00
-6.500000e+00 0.000000e+00
-6.450000e+00 0.000000e+00
-6.400000e+00 0.000000e+00
-6.350000e+00 0.000000e+00
-6.300000e+00 0.000000e+00
-6.250000e+00 0.000000e+00
-6.200000e+00 0.000000e+00
-6.150000e+00 0.000000e+00
-6.100000e+00 0.000000e+00
-6.050000e+00 0.000000e+00
-6.000000e+00 0.000000e+00
-5.950000e+00 0.000000e+00
-5.900000e+00 0.000000e+00
-5.850000e+00 0.000000e+00
-5.800000e+00 0.000000e+00
-5.750000e+00 0.000000e+00
-5.700000e+00 0.000000e+00
-5.650000e+00 0.000000e+00
-5.600000e+00 0.000000e+00
-5.550000e+00 0.000000e+00
-5.500000e+00 0.000000e+00
-5.450000e+00 0.000000e+00
-5.400000e+00 0.000000e+00
-5.350000e+00 0.000000e+00
-5.300000e+00 0.000000e+00
-5.250000e+00 0.000000e+00
-5.200000e+00 0.000000e+00
-5.150000e+00 0.000000e+00
-5.100000e+00 0.000000e+00
-5.050000e+00 0.000000e+00
-5.000000e+00 0.000000e+00
-4.950000e+00 0.000000e+00
-4.900000e+00 0.000000e+00
-4.850000e+00 0.000000e+00
-4.800000e+00 0.000000e+00
-4.750000e+00 0.000000e+00
-4.700000e+00 0.000000e+00
-4.650000e+00 0.000000e+00
-4.600000e+00 0.000000e+00
-4.550000e+00 0.000000e+00
-4.500000e+00 0.000000e+00
-4.450000e+00 0.000000e+00
-4.400000e+00 0.000000e+00
-4.350000e+00 0.000000e+00
-4.300000e+00 0.000000e+00
-4.250000e+00 0.000000e+00
-4.200000e+00 0.000000e+00
-4.150000e+00 0.000000e+00
-4.100000e+00 0.000000e+00
-4.050000e+00 0.000000e+00
-4.000000e+00 0.000000e+00
-3.950000e+00 0.000000e+00
-3.900000e+00 0.000000e+00
-3.850000e+00 0.000000e+00
-3.800000e+00 0.000000e+00
-3.750000e+00 0.000000e+00
-3.700000e+00 0.000000e+00
-3.650000e+00 0.000000e+00
-3.600000e+00 0.000000e+00
-3.550000e+00 0.000000e+00
-3.500000e+00 0.000000e+00
-3.450000e+00 0.000000e+00
-3.400000e+00 0.000000e+00
-3.350000e+00 0.000000e+00
-3.300000e+00 0.000000e+00
-3.250000e+00 0.000000e+00
-3.200000e+00 0.000000e+00
-3.150000e+00 0.000000e+00
-3.100000e+00 0.000000e+00
-3.050000e+00 0.000000e+00
-3.000000e+00 0.000000e+00
-2.950000e+00 0.000000e+00
-2.900000e+00 0.000000e+00
-2.850000e+00 0.000000e+00
-2.800000e+00 0.000000e+00
-2.750000e+00 0.000000e+00
-2.700000e+00 0.000000e+00
-2.650000e+00 0.000000e+00
-2.600000e+00 0.000000e+00
-2.550000e+00 0.000000e+00
-2.500000e+00 0.000000e+00
-2.450000e+00 0.000000e+00
-2.400000e+00 0.000000e+00
-2.350000e+00 0.000000e+00
-2.300000e+00 0.000000e+00
-2.250000e+00 0.000000e+00
-2.200000e+00 0.000000e+00
-2.150000e+00 0.000000e+00
-2.100000e+00 0.000000e+00
-2.050000e+00 0.000000e+00
-2.000000e+00 0.000000e+00
-1.950000e+00 0.000000e+00
-1.900000e+00 0.000000e+00
-1.850000e+00 0.000000e+00
-1.800000e+00 0.000000e+00
-1.750000e+00 0.000000e+00
-1.700000e+00 0.000000e+00
-1.650000e+00 0.000000e+00
-1.600000e+00 0.000000e+00
-1.550000e+00 0.000000e+00
-1.500000e+00 0.000000e+00
-1.450000e+00 -1.401298e-45
-1.400000e+00 -1.401298e-45
-1.350000e+00 0.000000e+00
-1.300000e+00 8.407791e-45
-1.250000e+00 5.605194e-45
-1.200000e+00 -8.407791e-45
-1.150000e+00 -3.783506e-44
-1.100000e+00 -6.445973e-44
-1.050000e+00 -3.082857e-44
-1.000000e+00 5.184804e-44
-9.499998e-01 9.388700e-44
-9.000001e-01 -5.465064e-44
-8.499999e-01 -4.301986e-43
-7.999997e-01 -6.950440e-43
-7.500000e-01 -2.914701e-43
-6.999998e-01 1.080401e-42
-6.500001e-01 2.480298e-42
-5.999999e-01 1.779649e-42
-5.499997e-01 -2.394819e-42
-5.000000e-01 -7.977592e-42
-4.499998e-01 -8.255049e-42
-4.000001e-01 3.423372e-42
-3.499999e-01 2.363290e-41
-2.999997e-01 3.235318e-41
-2.500000e-01 3.576114e-42
-1.999998e-01 -6.326722e-41
-1.500001e-01 -1.139326e-40
-9.999990e-02 -5.716457e-41
-4.999971e-02 1.441207e-40
0.000000e+00 3.606550e-40
5.000019e-02 3.019462e-40
1.000004e-01 -2.435541e-40
1.500006e-01 -1.027115e-39
1.999998e-01 -1.207775e-39
2.500000e-01 8.843314e-41
3.000002e-01 2.592832e-39
3.500004e-01 4.108796e-39
4.000006e-01 1.587137e-39
4.499998e-01 -5.573583e-39
5.000000e-01 -1.231936e-38
5.500002e-01 -9.251660e-39
6.000004e-01 8.988378e-39
6.500006e-01 3.278225e-38
6.999998e-01 3.618352e-38
7.500000e-01 -4.198125e-39
8.000002e-01 -7.636396e-38
8.500004e-01 -1.163757e-37
9.000006e-01 -4.412581e-38
9.499998e-01 1.484245e-37
1.000000e+00 3.237884e-37
1.050000e+00 2.467070e-37
1.100000e+00 -2.037473e-37
1.150001e+00 -7.860137e-37
1.200000e+00 -8.925484e-37
1.250000e+00 2.559379e-39
1.300000e+00 1.630773e-36
1.350000e+00 2.614514e-36
1.400001e+00 1.253079e-36
1.450000e+00 -2.680616e-36
1.500000e+00 -6.519431e-36
1.550000e+00 -5.654378e-36
1.600000e+00 2.479574e-36
1.650001e+00 1.385101e-35
1.700000e+00 1.767351e-35
1.750000e+00 4.029569e-36
1.800000e+00 -2.403320e-35
1.850000e+00 -4.481322e-35
1.900001e+00 -2.972741e-35
1.950000e+00 2.893767e-35
2.000000e+00 9.514884e-35
2.050000e+00 1.004079e-34
2.100000e+00 -9.974737e-37
2.150001e+00 -1.663555e-34
2.200000e+00 -2.554483e-34
2.250000e+00 -1.240029e-34
2.300000e+00 2.202400e-34
2.350000e+00 5.333681e-34
2.400001e+00 4.599883e-34
2.450000e+00 -1.450808e-34
2.500000e+00 -9.353425e-34
2.550000e+00 -1.165289e-33
2.600000e+00 -2.748694e-34
2.650001e+00 1.391049e-33
2.700000e+00 2.443768e-33
2.750000e+00 1.385286e-33
2.800000e+00 -1.790427e-33
2.850000e+00 -4.716343e-33
2.900001e+00 -3.904230e-33
2.950000e+00 1.980797e-33
3.000000e+00 9.251243e-33
3.050000e+00 1.020597e-32
3.100000e+00 -6.536734e-34
3.150001e+00 -1.880353e-32
3.200000e+00 -2.795587e-32
3.250000e+00 -1.038119e-32
3.300000e+00 3.398254e-32
3.350000e+00 7.460787e-32
3.400001e+00 6.194768e-32
3.450000e+00 -3.202480e-32
3.500000e+00 -1.673961e-31
3.550000e+00 -2.288770e-31
3.600000e+00 -9.230569e-32
3.650001e+00 2.519609e-31
3.700000e+00 6.050985e-31
3.750000e+00 6.107045e-31
3.800000e+00 3.542975e-35
3.850000e+00 -1.077049e-30
3.900001e+00 -1.901191e-30
3.950000e+00 -1.482391e-30
4.000000e+00 6.740832e-31
4.050000e+00 3.751739e-30
4.100000e+00 5.496034e-30
4.150001e+00 3.350901e-30
4.200000e+00 -3.374042e-30
4.250000e+00 -1.163966e-29
4.300000e+00 -1.501177e-29
4.350000e+00 -7.265390e-30
4.400001e+00 1.195878e-29
4.450000e+00 3.321447e-29
4.500000e+00 3.948200e-29
4.550000e+00 1.620403e-29
4.600000e+00 -3.502167e-29
4.650001e+00 -8.854947e-29
4.700000e+00 -1.021705e-28
4.750000e+00 -4.187516e-29
4.800000e+00 8.701587e-29
4.850000e+00 2.232700e-28
4.900001e+00 2.669869e-28
4.950000e+00 1.335058e-28
5.000000e+00 -1.777658e-28
5.050000e+00 -5.399531e-28
5.100000e+00 -7.204125e-28
5.150001e+00 -4.829741e-28
5.200000e+00 2.542924e-28
5.250000e+00 1.273416e-27
5.300000e+00 2.019518e-27
5.350000e+00 1.765697e-27
5.400001e+00 1.319249e-29
5.450000e+00 -2.975343e-27
5.500000e+00 -5.801745e-27
5.550000e+00 -6.147104e-27
5.600000e+00 -1.903247e-27
5.650001e+00 6.947688e-27
5.700000e+00 1.668309e-26
5.750000e+00 2.003756e-26
5.800000e+00 9.579127e-27
5.850000e+00 -1.615678e-26
5.900001e+00 -4.698819e-26
5.950000e+00 -6.115533e-26
6.000000e+00 -3.533762e-26
6.050000e+00 3.683784e-26
6.100000e+00 1.277092e-25
6.150001e+00 1.755276e-25
6.200000e+00 1.130430e-25
6.250000e+00 -8.042903e-26
6.300000e+00 -3.319837e-25
6.350000e+00 -4.757129e-25
6.400001e+00 -3.302689e-25
6.450000e+00 1.633908e-25
6.500000e+00 8.210387e-25
6.550000e+00 1.219931e-24
6.600000e+00 8.987011e-25
6.650001e+00 -2.977210e-25
6.700000e+00 -1.924527e-24
6.750000e+00 -2.958665e-24
6.800000e+00 -2.289714e-24
6.850000e+00 4.597869e-25
6.900001e+00 4.261505e-24
6.950000e+00 6.763020e-24
7.000000e+00 5.441863e-24
7.050000e+00 -5.399079e-25
7.100000e+00 -8.889402e-24
7.150001e+00 -1.446990e-23
7.200000e+00 -1.191404e-23
7.250000e+00 3.961518e-25
7.300000e+00 1.746077e-23
7.350000e+00 2.863743e-23
7.400001e+00 2.338783e-23
7.450000e+00 -6.382065e-25
7.500000e+00 -3.253709e-23
7.550000e+00 -5.137866e-23
7.600000e+00 -3.862704e-23
7.650001e+00 6.382094e-24
7.700000e+00 5.917564e-23
7.750000e+00 8.047979e-23
7.800000e+00 4.303316e-23
7.850000e+00 -4.058888e-23
7.900001e+00 -1.124654e-22
7.950000e+00 -1.011162e-22
8.000000e+00 1.965290e-23
8.050001e+00 1.837983e-22
8.100000e+00 2.461427e-22
8.150000e+00 7.560038e-23
8.200001e+00 -3.117694e-22
8.250000e+00 -6.774210e-22
8.300001e+00 -6.433670e-22
8.350000e+00 4.824412e-23
8.400000e+00 1.224507e-21
8.450001e+00 2.160931e-21
8.500000e+00 1.865834e-21
8.550001e+00 -2.355706e-22
8.600000e+00 -3.560275e-21
8.650000e+00 -6.150816e-21
8.700001e+00 -5.455848e-21
8.750000e+00 -3.288209e-23
8.800001e+00 8.678423e-21
8.850000e+00 1.586985e-20
8.900000e+00 1.522411e-20
8.950001e+00 2.909552e-21
9.000000e+00 -1.823746e-20
9.050001e+00 -3.739222e-20
9.100000e+00 -3.967032e-20
9.150000e+00 -1.494072e-20
9.200001e+00 3.259102e-20
9.250000e+00 8.058390e-20
9.300001e+00 9.588829e-20
9.350000e+00 5.277555e-20
9.400000e+00 -4.593092e-20
9.450001e+00 -1.582445e-19
9.500000e+00 -2.146640e-19
9.550001e+00 -1.533827e-19
9.600000e+00 3.511202e-20
9.650000e+00 2.801591e-19
9.700001e+00 4.449512e-19
9.750000e+00 3.896638e-19
9.800001e+00 6.140687e-20
9.850000e+00 -4.372583e-19
9.900000e+00 -8.538360e-19
9.950001e+00 -8.901674e-19
1.000000e+01 -3.760837e-19
1.005000e+01 5.724561e-19
1.010000e+01 1.517978e-18
1.015000e+01 1.858601e-18
1.020000e+01 1.150981e-18
1.025000e+01 -5.445660e-19
1.030000e+01 -2.511245e-18
1.035000e+01 -3.589963e-18
1.040000e+01 -2.765020e-18
1.045000e+01 1.176235e-19
1.050000e+01 3.923871e-18
1.055000e+01 6.498490e-18
1.060000e+01 5.721156e-18
1.065000e+01 9.454649e-19
1.070000e+01 -6.017039e-18
1.075000e+01 -1.123111e-17
1.080000e+01 -1.057634e-17
1.085000e+01 -2.549778e-18
1.090000e+01 9.728460e-18
1.095000e+01 1.906135e-17
1.100000e+01 1.786779e-17
1.105000e+01 3.537340e-18
1.110000e+01 -1.786408e-17
1.115000e+01 -3.293223e-17
1.120000e+01 -2.825097e-17
1.125000e+01 -4.902420e-19
1.130000e+01 3.732300e-17
1.135000e+01 5.963463e-17
1.140000e+01 4.327650e-17
1.145000e+01 -1.371559e-17
1.150000e+01 -8.239818e-17
1.155000e+01 -1.133929e-16
1.160000e+01 -6.727379e-17
1.165000e+01 5.094662e-17
1.170000e+01 1.783468e-16
1.175000e+01 2.201330e-16
1.180000e+01 1.101711e-16
1.185000e+01 -1.275072e-16
1.190000e+01 -3.630021e-16
1.195000e+01 -4.194951e-16
1.200000e+01 -1.890530e-16
1.205000e+01 2.622120e-16
1.210000e+01 6.827074e-16
1.215000e+01 7.582873e-16
1.220000e+01 3.223899e-16
1.225000e+01 -4.750065e-16
1.230000e+01 -1.178451e-15
1.235000e+01 -1.265711e-15
1.240000e+01 -5.059272e-16
1.245000e+01 7.926651e-16
1.250000e+01 1.860068e-15
1.255000e+01 1.899775e-15
1.260000e+01 6.561796e-16
1.265000e+01 -1.272030e-15
1.270000e+01 -2.670398e-15
1.275000e+01 -2.458332e-15
1.280000e+01 -5.112734e-16
1.285000e+01 2.048996e-15
1.290000e+01 3.443230e-15
1.295000e+01 2.456714e-15
1.300000e+01 -5.063701e-16
1.305000e+01 -3.405607e-15
1.310000e+01 -3.850574e-15
1.315000e+01 -9.810058e-16
1.320000e+01 3.437387e-15
1.325000e+01 5.815663e-15
1.330000e+01 3.309682e-15
1.335000e+01 -3.478092e-15
1.340000e+01 -9.893451e-15
1.345000e+01 -9.892105e-15
1.350000e+01 -7.858805e-16
1.355000e+01 1.322119e-14
1.360000e+01 2.206944e-14
1.365000e+01 1.614151e-14
1.370000e+01 -5.584818e-15
1.375000e+01 -3.157503e-14
1.380000e+01 -4.259911e-14
1.385000e+01 -2.444653e-14
1.390000e+01 1.907824e-14
1.395000e+01 6.309869e-14
1.400000e+01 7.413274e-14
1.405000e+01 3.320423e-14
1.410000e+01 -4.508888e-14
1.415000e+01 -1.135099e-13
1.420000e+01 -1.183231e-13
1.425000e+01 -3.793715e-14
1.430000e+01 9.184947e-14
1.435000e+01 1.889027e-13
1.440000e+01 1.736324e-13
1.445000e+01 2.889736e-14
1.450000e+01 -1.713079e-13
1.455000e+01 -2.939984e-13
1.460000e+01 -2.314054e-13
1.465000e+01 1.300947e-14
1.470000e+01 3.008200e-13
1.475000e+01 4.300232e-13
1.480000e+01 2.706769e-13
1.485000e+01 -1.218481e-13
1.490000e+01 -5.062568e-13
1.495000e+01 -5.939132e-13
1.500000e+01 -2.544638e-13
1.505000e+01 3.508131e-13
1.510000e+01 8.247150e-13
1.515000e+01 7.798006e-13
1.520000e+01 1.320503e-13
1.525000e+01 -7.676202e-13
1.530000e+01 -1.299139e-12
1.535000e+01 -9.780019e-13
1.540000e+01 1.517838e-13
1.545000e+01 1.433398e-12
1.550000e+01 1.951694e-12
1.555000e+01 1.156380e-12
1.560000e+01 -6.530832e-13
1.565000e+01 -2.370383e-12
1.570000e+01 -2.730500e-12
1.575000e+01 -1.206393e-12
1.580000e+01 1.459372e-12
1.585000e+01 3.553246e-12
1.590000e+01 3.461109e-12
1.595000e+01 8.686754e-13
1.600000e+01 -2.769516e-12
1.605000e+01 -4.976233e-12
1.610000e+01 -3.887894e-12
1.615000e+01 2.632162e-13
1.620000e+01 4.943824e-12
1.625000e+01 6.774966e-12
1.630000e+01 3.872197e-12
1.635000e+01 -2.498307e-12
1.640000e+01 -8.289978e-12
1.645000e+01 -9.154038e-12
1.650000e+01 -3.565858e-12
1.655000e+01 5.588069e-12
1.660000e+01 1.238430e-11
1.665000e+01 1.167324e-11
1.670000e+01 2.919997e-12
1.675000e+01 -8.741483e-12
1.680000e+01 -1.544802e-11
1.685000e+01 -1.198146e-11
1.690000e+01 3.407773e-14
1.695000e+01 1.241704e-11
1.700000e+01 1.567894e-11
1.705000e+01 6.082652e-12
1.710000e+01 -1.052202e-11
1.715000e+01 -2.152955e-11
1.720000e+01 -1.609189e-11
1.725000e+01 6.104394e-12
1.730000e+01 3.234358e-11
1.735000e+01 4.365832e-11
1.740000e+01 2.750442e-11
1.745000e+01 -1.194702e-11
1.750000e+01 -5.376825e-11
1.755000e+01 -7.210089e-11
1.760000e+01 -5.308790e-11
1.765000e+01 -5.491235e-12
1.770000e+01 4.339350e-11
1.775000e+01 6.531699e-11
1.780000e+01 5.091263e-11
1.785000e+01 1.743412e-11
1.790000e+01 -2.882168e-12
1.795000e+01 1.237766e-11
1.800000e+01 5.485277e-11
1.805000e+01 8.506085e-11
1.810000e+01 5.664104e-11
1.815000e+01 -4.848957e-11
1.820000e+01 -1.980047e-10
1.825000e+01 -3.182946e-10
1.830000e+01 -3.333681e-10
1.835000e+01 -2.108075e-10
1.840000e+01 1.551555e-11
1.845000e+01 2.630046e-10
1.850000e+01 4.483559e-10
1.855000e+01 5.337684e-10
1.860000e+01 5.380620e-10
1.865000e+01 5.030162e-10
1.870000e+01 4.388649e-10
1.875000e+01 2.925658e-10
1.880000e+01 -2.845778e-11
1.885000e+01 -5.821025e-10
1.890000e+01 -1.312105e-09
1.895000e+01 -2.021797e-09
1.900000e+01 -2.432322e-09
1.905000e+01 -2.302848e-09
1.910000e+01 -1.545385e-09
1.915000e+01 -2.637268e-10
1.920000e+01 1.308420e-09
1.925000e+01 2.928302e-09
1.930000e+01 4.439946e-09
1.935000e+01 5.775887e-09
1.940000e+01 6.862540e-09
1.945000e+01 7.501864e-09
1.950000e+01 7.330687e-09
1.955000e+01 5.914913e-09
1.960000e+01 2.942673e-09
1.965000e+01 -1.599802e-09
1.970000e+01 -7.393264e-09
1.975000e+01 -1.393600e-08
1.980000e+01 -2.080525e-08
1.985000e+01 -2.787580e-08
1.990000e+01 -3.536226e-08
1.995000e+01 -4.366420e-08
2.000000e+01 -5.312766e-08
2.005000e+01 -6.389676e-08
2.010000e+01 -7.596942e-08
2.015000e+01 -8.942470e-08
2.020000e+01 -1.046558e-07
2.025000e+01 -1.224216e-07
2.030000e+01 -1.436456e-07
2.035000e+01 -1.690726e-07
2.040000e+01 -1.990161e-07
2.045000e+01 -2.333952e-07
2.050000e+01 -2.720809e-07
2.055000e+01 -3.153611e-07
2.060000e+01 -3.642344e-07
2.065000e+01 -4.203355e-07
2.070000e+01 -4.855331e-07
2.075000e+01 -5.614594e-07
2.080000e+01 -6.492869e-07
2.085000e+01 -7.499126e-07
2.090000e+01 -8.644290e-07
2.095000e+01 -9.945716e-07
2.100000e+01 -1.142834e-06
2.105000e+01 -1.312176e-06
2.110000e+01 -1.505539e-06
2.115000e+01 -1.725523e-06
2.120000e+01 -1.974487e-06
2.125000e+01 -2.255046e-06
2.130000e+01 -2.570652e-06
2.135000e+01 -2.925873e-06
2.140000e+01 -3.326209e-06
2.145000e+01 -3.777579e-06
2.150000e+01 -4.285876e-06
2.155000e+01 -4.856913e-06
2.160000e+01 -5.496831e-06
2.165000e+01 -6.212677e-06
2.170000e+01 -7.012720e-06
2.175000e+01 -7.906292e-06
2.180000e+01 -8.903234e-06
2.185000e+01 -1.001342e-05
2.190000e+01 -1.124678e-05
2.195000e+01 -1.261384e-05
2.200000e+01 -1.412666e-05
2.205000e+01 -1.579932e-05
2.210000e+01 -1.764777e-05
2.215000e+01 -1.968899e-05
2.220000e+01 -2.194004e-05
2.225000e+01 -2.441756e-05
2.230000e+01 -2.713821e-05
2.235000e+01 -3.011961e-05
2.240000e+01 -3.338144e-05
2.245000e+01 -3.694566e-05
2.250000e+01 -4.083603e-05
2.255000e+01 -4.507695e-05
2.260000e+01 -4.969282e-05
2.265000e+01 -5.470781e-05
2.270000e+01 -6.014666e-05
2.275000e+01 -6.603555e-05
2.280000e+01 -7.240228e-05
2.285000e+01 -7.927559e-05
2.290000e+01 -8.668398e-05
2.295000e+01 -9.465454e-05
2.300000e+01 -1.032129e-04
2.305000e+01 -1.123842e-04
2.310000e+01 -1.221944e-04
2.315000e+01 -1.326710e-04
2.320000e+01 -1.438424e-04
2.325000e+01 -1.557361e-04
2.330000e+01 -1.683762e-04
2.335000e+01 -1.817827e-04
2.340000e+01 -1.959708e-04
2.345000e+01 -2.109530e-04
2.350000e+01 -2.267405e-04
2.355000e+01 -2.433440e-04
2.360000e+01 -2.607728e-04
2.365000e+01 -2.790329e-04
2.370000e+01 -2.981237e-04
2.375000e+01 -3.180380e-04
2.380000e+01 -3.387606e-04
2.385000e+01 -3.602696e-04
2.390000e+01 -3.825381e-04
2.395000e+01 -4.055340e-04
2.400000e+01 -4.292195e-04
2.405000e+01 -4.535507e-04
2.410000e+01 -4.784756e-04
2.415000e+01 -5.039338e-04
2.420000e+01 -5.298556e-04
2.425000e+01 -5.561626e-04
2.430000e+01 -5.827672e-04
2.435000e+01 -6.095728e-04
2.440000e+01 -6.364738e-04
2.445000e+01 -6.633556e-04
2.450000e+01 -6.900953e-04
2.455000e+01 -7.165621e-04
2.460000e+01 -7.426185e-04
2.465000e+01 -7.681194e-04
2.470000e+01 -7.929117e-04
2.475000e+01 -8.168353e-04
2.480000e+01 -8.397220e-04
2.485000e+01 -8.613971e-04
2.490000e+01 -8.816806e-04
2.495000e+01 -9.003888e-04
2.500000e+01 -9.173345e-04
2.505000e+01 -9.323288e-04
2.510000e+01 -9.451828e-04
2.515000e+01 -9.557078e-04
2.520000e+01 -9.637185e-04
2.525000e+01 -9.690332e-04
2.530000e+01 -9.714757e-04
2.535000e+01 -9.708750e-04
2.540000e+01 -9.670652e-04
2.545000e+01 -9.598879e-04
2.550000e+01 -9.491933e-04
2.555000e+01 -9.348428e-04
2.560000e+01 -9.167137e-04
2.565000e+01 -8.947016e-04
2.570000e+01 -8.687217e-04
2.575000e+01 -8.387088e-04
2.580000e+01 -8.046162e-04
2.585000e+01 -7.664151e-04
2.590000e+01 -7.240950e-04
2.595000e+01 -6.776658e-04
2.600000e+01 -6.271611e-04
2.605000e+01 -5.726400e-04
2.610000e+01 -5.141915e-04
2.615000e+01 -4.519305e-04
2.620000e+01 -3.860000e-04
2.625000e+01 -3.165673e-04
2.630000e+01 -2.438228e-04
2.635000e+01 -1.679799e-04
2.640000e+01 -8.927510e-05
2.645000e+01 -7.968639e-06
2.650000e+01 7.565535e-05
2.655000e+01 1.612896e-04
2.660000e+01 2.486056e-04
2.665000e+01 3.372563e-04
2.670000e+01 4.268789e-04
2.675000e+01 5.170975e-04
2.680000e+01 6.075254e-04
2.685000e+01 6.977660e-04
2.690000e+01 7.874151e-04
2.695000e+01 8.760631e-04
2.700000e+01 9.632965e-04
2.705000e+01 1.048703e-03
2.710000e+01 1.131871e-03
2.715000e+01 1.212397e-03
2.720000e+01 1.289889e-03
2.725000e+01 1.363963e-03
2.730000e+01 1.434253e-03
2.735000e+01 1.500407e-03
2.740000e+01 1.562095e-03
2.745000e+01 1.619005e-03
2.750000e+01 1.670851e-03
2.755000e+01 1.717375e-03
2.760000e+01 1.758345e-03
2.765000e+01 1.793558e-03
2.770000e+01 1.822844e-03
2.775000e+01 1.846065e-03
2.780000e+01 1.863114e-03
2.785000e+01 1.873921e-03
2.790000e+01 1.878451e-03
2.795000e+01 1.876703e-03
2.800000e+01 1.868715e-03
2.805000e+01 1.854556e-03
2.810000e+01 1.834329e-03
2.815000e+01 1.808169e-03
2.820000e+01 1.776238e-03
2.825000e+01 1.738734e-03
2.830000e+01 1.695879e-03
2.835000e+01 1.647927e-03
2.840000e+01 1.595156e-03
2.845000e+01 1.537873e-03
2.850000e+01 1.476400e-03
2.855000e+01 1.411081e-03
2.860000e+01 1.342270e-03
2.865000e+01 1.270333e-03
2.870000e+01 1.195648e-03
2.875000e+01 1.118598e-03
2.880000e+01 1.039574e-03
2.885000e+01 9.589706e-04
2.890000e+01 8.771826e-04
2.895000e+01 7.946039e-04
2.900000e+01 7.116209e-04
2.905000e+01 6.286117e-04
2.910000e+01 5.459428e-04
2.915000e+01 4.639674e-04
2.920000e+01 3.830254e-04
2.925000e+01 3.034408e-04
2.930000e+01 2.255207e-04
2.935000e+01 1.495535e-04
2.940000e+01 7.580715e-05
2.945000e+01 4.527377e-06
