-8.000000e+00 0.000000e+00
-7.990000e+00 0.000000e+00
-7.980000e+00 0.000000e+00
-7.970000e+00 0.000000e+00
-7.960000e+00 0.000000e+00
-7.950000e+00 0.000000e+00
-7.940000e+00 0.000000e+00
-7.930000e+00 0.000000e+00
-7.920000e+00 0.000000e+00
-7.910000e+00 0.000000e+00
-7.900000e+00 0.000000e+00
-7.890000e+00 0.000000e+00
-7.880000e+00 0.000000e+00
-7.870000e+00 0.000000e+00
-7.860000e+00 0.000000e+00
-7.850000e+00 0.000000e+00
-7.840000e+00 0.000000e+00
-7.830000e+00 0.000000e+00
-7.820000e+00 0.000000e+00
-7.810000e+00 0.000000e+00
-7.800000e+00 0.000000e+00
-7.790000e+00 0.000000e+00
-7.780000e+00 0.000000e+00
-7.770000e+00 0.000000e+00
-7.760000e+00 0.000000e+00
-7.750000e+00 0.000000e+00
-7.740000e+00 0.000000e+00
-7.730000e+00 0.000000e+00
-7.720000e+00 0.000000e+00
-7.710000e+00 0.000000e+00
-7.700000e+00 0.000000e+00
-7.690000e+00 0.000000e+00
-7.680000e+00 0.000000e+00
-7.670000e+00 0.000000e+00
-7.660000e+00 0.000000e+00
-7.650000e+00 0.000000e+00
-7.640000e+00 0.000000e+00
-7.630000e+00 0.000000e+00
-7.620000e+00 0.000000e+00
-7.610000e+00 0.000000e+00
-7.600000e+00 0.000000e+00
-7.590000e+00 0.000000e+00
-7.580000e+00 0.000000e+00
-7.570000e+00 0.000000e+00
-7.560000e+00 0.000000e+00
-7.550000e+00 0.000000e+00
-7.540000e+00 0.000000e+00
-7.530000e+00 0.000000e+00
-7.520000e+00 0.000000e+00
-7.510000e+00 0.000000e+00
-7.500000e+00 0.000000e+00
-7.490000e+00 0.000000e+00
-7.480000e+00 0.000000e+00
-7.470000e+00 0.000000e+00
-7.460000e+00 0.000000e+00
-7.450000e+00 0.000000e+00
-7.440000e+00 0.000000e+00
-7.430000e+00 0.000000e+00
-7.420000e+00 0.000000e+00
-7.410000e+00 0.000000e+00
-7.400000e+00 0.000000e+00
-7.390000e+00 0.000000e+00
-7.380000e+00 0.000000e+00
-7.370000e+00 0.000000e+00
-7.360000e+00 0.000000e+00
-7.350000e+00 0.000000e+00
-7.340000e+00 0.000000e+00
-7.330000e+00 0.000000e+00
-7.320000e+00 0.000000e+00
-7.310000e+00 0.000000e+00
-7.300000e+00 0.000000e+00
-7.290000e+00 0.000000e+00
-7.280000e+00 0.000000e+00
-7.270000e+00 0.000000e+00
-7.260000e+00 0.000000e+00
-7.250000e+00 0.000000e+00
-7.240000e+00 0.000000e+00
-7.230000e+00 0.000000e+00
-7.220000e+00 0.000000e+00
-7.210000e+00 0.000000e+00
-7.200000e+00 0.000000e+00
-7.190000e+00 0.000000e+00
-7.180000e+00 0.000000e+00
-7.170000e+00 1.401298e-45
-7.160000e+00 1.401298e-45
-7.150000e+00 2.802597e-45
-7.140000e+00 2.802597e-45
-7.130000e+00 5.605194e-45
-7.120000e+00 8.407791e-45
-7.110000e+00 1.401298e-44
-7.100000e+00 1.961818e-44
-7.090000e+00 2.802597e-44
-7.080000e+00 4.203895e-44
-7.070000e+00 6.165713e-44
-7.060000e+00 8.968310e-44
-7.050000e+00 1.191104e-43
-7.040000e+00 1.625506e-43
-7.030000e+00 2.172013e-43
-7.020000e+00 2.886675e-43
-7.010000e+00 3.853571e-43
-7.000000e+00 5.128752e-43
-6.990000e+00 6.810311e-43
-6.980000e+00 9.024362e-43
-6.970000e+00 1.192505e-42
-6.960000e+00 1.569454e-42
-6.950000e+00 2.057106e-42
-6.940000e+00 2.689092e-42
-6.930000e+00 3.493437e-42
-6.920000e+00 4.519188e-42
-6.910000e+00 5.820994e-42
-6.900000e+00 7.460513e-42
-6.890000e+00 9.516218e-42
-6.880000e+00 1.207919e-41
-6.870000e+00 1.526014e-41
-6.860000e+00 1.918097e-41
-6.850000e+00 2.398883e-41
-6.840000e+00 2.984626e-41
-6.830000e+00 3.694243e-41
-6.820000e+00 4.548755e-41
-6.810000e+00 5.571002e-41
-6.800000e+00 6.786068e-41
-6.790000e+00 8.220297e-41
-6.780000e+00 9.901435e-41
-6.770000e+00 1.185779e-40
-6.760000e+00 1.411584e-40
-6.750000e+00 1.670011e-40
-6.740000e+00 1.963191e-40
-6.730000e+00 2.292524e-40
-6.720000e+00 2.658473e-40
-6.710000e+00 3.060282e-40
-6.700000e+00 3.495497e-40
-6.690000e+00 3.959537e-40
-6.680000e+00 4.445059e-40
-6.670000e+00 4.941497e-40
-6.660000e+00 5.434334e-40
-6.650000e+00 5.904385e-40
-6.640000e+00 6.327073e-40
-6.630000e+00 6.671694e-40
-6.620000e+00 6.900708e-40
-6.610000e+00 6.968980e-40
-6.600000e+00 6.823427e-40
-6.590000e+00 6.402463e-40
-6.580000e+00 5.635994e-40
-6.570000e+00 4.445507e-40
-6.560000e+00 2.744807e-40
-6.550000e+00 4.410727e-41
-6.540000e+00 -2.563395e-40
-6.530000e+00 -6.368705e-40
-6.520000e+00 -1.107387e-39
-6.510000e+00 -1.677274e-39
-6.500000e+00 -2.354843e-39
-6.490000e+00 -3.146698e-39
-6.480000e+00 -4.056961e-39
-6.470000e+00 -5.086397e-39
-6.460000e+00 -6.231403e-39
-6.450000e+00 -7.482927e-39
-6.440000e+00 -8.825236e-39
-6.430000e+00 -1.023474e-38
-6.420000e+00 -1.167865e-38
-6.410000e+00 -1.311379e-38
-6.400000e+00 -1.448543e-38
-6.390000e+00 -1.572628e-38
-6.380000e+00 -1.675578e-38
-6.370000e+00 -1.747970e-38
-6.360000e+00 -1.779020e-38
-6.350000e+00 -1.756648e-38
-6.340000e+00 -1.667615e-38
-6.330000e+00 -1.497744e-38
-6.320000e+00 -1.232231e-38
-6.310000e+00 -8.560775e-39
-6.300000e+00 -3.546302e-39
-6.290000e+00 2.857465e-39
-6.280000e+00 1.076870e-38
-6.270000e+00 2.027805e-38
-6.260000e+00 3.143806e-38
-6.250000e+00 4.425149e-38
-6.240000e+00 5.865869e-38
-6.230000e+00 7.452444e-38
-6.220000e+00 9.162448e-38
-6.210000e+00 1.096326e-37
-6.200000e+00 1.281082e-37
-6.190000e+00 1.464862e-37
-6.180000e+00 1.640691e-37
-6.170000e+00 1.800224e-37
-6.160000e+00 1.933750e-37
-6.150000e+00 2.030245e-37
-6.140000e+00 2.077505e-37
-6.130000e+00 2.062341e-37
-6.120000e+00 1.970874e-37
-6.110000e+00 1.788917e-37
-6.100000e+00 1.502473e-37
-6.090000e+00 1.098324e-37
-6.080000e+00 5.647352e-38
-6.070000e+00 -1.077404e-38
-6.060000e+00 -9.253687e-38
-6.050000e+00 -1.890268e-37
-6.040000e+00 -2.999387e-37
-6.030000e+00 -4.243471e-37
-6.020000e+00 -5.606041e-37
-6.010000e+00 -7.062442e-37
-6.000000e+00 -8.579017e-37
-5.990000e+00 -1.011245e-36
-5.980000e+00 -1.160941e-36
-5.970000e+00 -1.300640e-36
-5.960000e+00 -1.423017e-36
-5.950000e+00 -1.519847e-36
-5.940000e+00 -1.582136e-36
-5.930000e+00 -1.600321e-36
-5.920000e+00 -1.564522e-36
-5.910000e+00 -1.464871e-36
-5.900000e+00 -1.291906e-36
-5.890000e+00 -1.037033e-36
-5.880000e+00 -6.930498e-37
-5.870000e+00 -2.547197e-37
-5.860000e+00 2.806122e-37
-5.850000e+00 9.123831e-37
-5.840000e+00 1.636176e-36
-5.830000e+00 2.443111e-36
-5.820000e+00 3.319296e-36
-5.810000e+00 4.245369e-36
-5.800000e+00 5.196180e-36
-5.790000e+00 6.140631e-36
-5.780000e+00 7.041751e-36
-5.770000e+00 7.857010e-36
-5.760000e+00 8.538931e-36
-5.750000e+00 9.036032e-36
-5.740000e+00 9.294107e-36
-5.730000e+00 9.257899e-36
-5.720000e+00 8.873103e-36
-5.710000e+00 8.088754e-36
-5.700000e+00 6.859933e-36
-5.690000e+00 5.150726e-36
-5.680000e+00 2.937409e-36
-5.670000e+00 2.116927e-37
-5.660000e+00 -3.016012e-36
-5.650000e+00 -6.713527e-36
-5.640000e+00 -1.082415e-35
-5.630000e+00 -1.526442e-35
-5.620000e+00 -1.992257e-35
-5.610000e+00 -2.465792e-35
-5.600000e+00 -2.930133e-35
-5.590000e+00 -3.365695e-35
-5.580000e+00 -3.750547e-35
-5.570000e+00 -4.060890e-35
-5.560000e+00 -4.271705e-35
-5.550000e+00 -4.357571e-35
-5.540000e+00 -4.293647e-35
-5.530000e+00 -4.056808e-35
-5.520000e+00 -3.626910e-35
-5.510000e+00 -2.988162e-35
-5.500000e+00 -2.130538e-35
-5.490000e+00 -1.051210e-35
-5.480000e+00 2.440923e-36
-5.470000e+00 1.739845e-35
-5.460000e+00 3.409704e-35
-5.450000e+00 5.215783e-35
-5.440000e+00 7.108302e-35
-5.430000e+00 9.025701e-35
-5.420000e+00 1.089531e-34
-5.410000e+00 1.263462e-34
-5.400000e+00 1.415317e-34
-5.390000e+00 1.535526e-34
-5.380000e+00 1.614316e-34
-5.370000e+00 1.642116e-34
-5.360000e+00 1.610008e-34
-5.350000e+00 1.510234e-34
-5.340000e+00 1.336738e-34
-5.330000e+00 1.085708e-34
-5.320000e+00 7.561266e-35
-5.310000e+00 3.502711e-35
-5.300000e+00 -1.258543e-35
-5.290000e+00 -6.621844e-35
-5.280000e+00 -1.244398e-34
-5.270000e+00 -1.853896e-34
-5.260000e+00 -2.467980e-34
-5.250000e+00 -3.060262e-34
-5.240000e+00 -3.601333e-34
-5.230000e+00 -4.059689e-34
-5.220000e+00 -4.402928e-34
-5.210000e+00 -4.599214e-34
-5.200000e+00 -4.618948e-34
-5.190000e+00 -4.436657e-34
-5.180000e+00 -4.032987e-34
-5.170000e+00 -3.396748e-34
-5.160000e+00 -2.526924e-34
-5.150000e+00 -1.434499e-34
-5.140000e+00 -1.440101e-35
-5.130000e+00 1.305334e-34
-5.120000e+00 2.859098e-34
-5.110000e+00 4.447775e-34
-5.100000e+00 5.987785e-34
-5.090000e+00 7.383414e-34
-5.080000e+00 8.529809e-34
-5.070000e+00 9.317051e-34
-5.060000e+00 9.635319e-34
-5.050000e+00 9.381096e-34
-5.040000e+00 8.464298e-34
-5.030000e+00 6.816108e-34
-5.020000e+00 4.397292e-34
-5.010000e+00 1.206604e-34
-5.000000e+00 -2.711124e-34
-4.990000e+00 -7.257711e-34
-4.980000e+00 -1.227573e-33
-4.970000e+00 -1.754461e-33
-4.960000e+00 -2.277932e-33
-4.950000e+00 -2.763233e-33
-4.940000e+00 -3.169932e-33
-4.930000e+00 -3.452931e-33
-4.920000e+00 -3.563943e-33
-4.910000e+00 -3.453472e-33
-4.900000e+00 -3.073285e-33
-4.890000e+00 -2.379365e-33
-4.880000e+00 -1.335288e-33
-4.870000e+00 8.405785e-35
-4.860000e+00 1.888530e-33
-4.850000e+00 4.068722e-33
-4.840000e+00 6.592081e-33
-4.830000e+00 9.399357e-33
-4.820000e+00 1.240169e-32
-4.810000e+00 1.547854e-32
-4.800000e+00 1.847680e-32
-4.790000e+00 2.121145e-32
-4.780000e+00 2.346783e-32
-4.770000e+00 2.500605e-32
-4.760000e+00 2.556762e-32
-4.750000e+00 2.488437e-32
-4.740000e+00 2.268991e-32
-4.730000e+00 1.873343e-32
-4.720000e+00 1.279577e-32
-4.710000e+00 4.707365e-33
-4.700000e+00 -5.632318e-33
-4.690000e+00 -1.823454e-32
-4.680000e+00 -3.300106e-32
-4.670000e+00 -4.970479e-32
-4.660000e+00 -6.797267e-32
-4.650000e+00 -8.727168e-32
-4.640000e+00 -1.068998e-31
-4.630000e+00 -1.259827e-31
-4.620000e+00 -1.434785e-31
-4.610000e+00 -1.581909e-31
-4.600000e+00 -1.687923e-31
-4.590000e+00 -1.738584e-31
-4.580000e+00 -1.719142e-31
-4.570000e+00 -1.614920e-31
-4.560000e+00 -1.412009e-31
-4.550000e+00 -1.098072e-31
-4.540000e+00 -6.632466e-32
-4.530000e+00 -1.011087e-32
-4.520000e+00 5.903146e-32
-4.510000e+00 1.407532e-31
-4.500000e+00 2.340616e-31
-4.490000e+00 3.372328e-31
-4.480000e+00 4.477387e-31
-4.470000e+00 5.621971e-31
-4.460000e+00 6.763474e-31
-4.450000e+00 7.850631e-31
-4.440000e+00 8.824049e-31
-4.430000e+00 9.617177e-31
-4.420000e+00 1.015783e-30
-4.410000e+00 1.037022e-30
-4.400000e+00 1.017757e-30
-4.390000e+00 9.505268e-31
-4.380000e+00 8.284550e-31
-4.370000e+00 6.456652e-31
-4.360000e+00 3.977300e-31
-4.350000e+00 8.214792e-32
-4.340000e+00 -3.011742e-31
-4.330000e+00 -7.494481e-31
-4.320000e+00 -1.256566e-30
-4.310000e+00 -1.812721e-30
-4.300000e+00 -2.404113e-30
-4.290000e+00 -3.012768e-30
-4.280000e+00 -3.616509e-30
-4.270000e+00 -4.189085e-30
-4.260000e+00 -4.700513e-30
-4.250000e+00 -5.117632e-30
-4.240000e+00 -5.404894e-30
-4.230000e+00 -5.525408e-30
-4.220000e+00 -5.442228e-30
-4.210000e+00 -5.119884e-30
-4.200000e+00 -4.526133e-30
-4.190000e+00 -3.633891e-30
-4.180000e+00 -2.423308e-30
-4.170000e+00 -8.839253e-31
-4.160000e+00 9.831779e-31
-4.150000e+00 3.163318e-30
-4.140000e+00 5.626329e-30
-4.130000e+00 8.324984e-30
-4.120000e+00 1.119384e-29
-4.110000e+00 1.414862e-29
-4.100000e+00 1.708625e-29
-4.090000e+00 1.988569e-29
-4.080000e+00 2.240959e-29
-4.070000e+00 2.450701e-29
-4.060000e+00 2.601704e-29
-4.050000e+00 2.677353e-29
-4.040000e+00 2.661089e-29
-4.030000e+00 2.537074e-29
-4.020000e+00 2.290965e-29
-4.010000e+00 1.910739e-29
-4.000000e+00 1.387577e-29
-3.990000e+00 7.167794e-30
-3.980000e+00 -1.013439e-30
-3.970000e+00 -1.060614e-29
-3.960000e+00 -2.148223e-29
-3.950000e+00 -3.344100e-29
-3.940000e+00 -4.620468e-29
-3.930000e+00 -5.941617e-29
-3.920000e+00 -7.263971e-29
-3.910000e+00 -8.536463e-29
-3.900000e+00 -9.701267e-29
-3.890000e+00 -1.069494e-28
-3.880000e+00 -1.144995e-28
-3.870000e+00 -1.189662e-28
-3.860000e+00 -1.196550e-28
-3.850000e+00 -1.159007e-28
-3.840000e+00 -1.070989e-28
-3.830000e+00 -9.273860e-29
-3.820000e+00 -7.243772e-29
-3.810000e+00 -4.597916e-29
-3.800000e+00 -1.334601e-29
-3.790000e+00 2.524491e-29
-3.780000e+00 6.931358e-29
-3.770000e+00 1.180923e-28
-3.760000e+00 1.705088e-28
-3.750000e+00 2.251779e-28
-3.740000e+00 2.804044e-28
-3.730000e+00 3.341979e-28
-3.720000e+00 3.843017e-28
-3.710000e+00 4.282363e-28
-3.700000e+00 4.633579e-28
-3.690000e+00 4.869336e-28
-3.680000e+00 4.962301e-28
-3.670000e+00 4.886175e-28
-3.660000e+00 4.616854e-28
-3.650000e+00 4.133681e-28
-3.640000e+00 3.420763e-28
-3.630000e+00 2.468315e-28
-3.620000e+00 1.273978e-28
-3.610000e+00 -1.559476e-29
-3.600000e+00 -1.805390e-28
-3.590000e+00 -3.647611e-28
-3.580000e+00 -5.644566e-28
-3.570000e+00 -7.746589e-28
-3.560000e+00 -9.892483e-28
-3.550000e+00 -1.201003e-27
-3.540000e+00 -1.401703e-27
-3.530000e+00 -1.582283e-27
-3.520000e+00 -1.733040e-27
-3.510000e+00 -1.843902e-27
-3.500000e+00 -1.904744e-27
-3.490000e+00 -1.905753e-27
-3.480000e+00 -1.837842e-27
-3.470000e+00 -1.693090e-27
-3.460000e+00 -1.465214e-27
-3.450000e+00 -1.150034e-27
-3.440000e+00 -7.459487e-28
-3.430000e+00 -2.543702e-28
-3.420000e+00 3.198850e-28
-3.410000e+00 9.682711e-28
-3.400000e+00 1.678281e-27
-3.390000e+00 2.433326e-27
-3.380000e+00 3.212748e-27
-3.370000e+00 3.991984e-27
-3.360000e+00 4.742897e-27
-3.350000e+00 5.434286e-27
-3.340000e+00 6.032580e-27
-3.330000e+00 6.502726e-27
-3.320000e+00 6.809242e-27
-3.310000e+00 6.917456e-27
-3.300000e+00 6.794873e-27
-3.290000e+00 6.412660e-27
-3.280000e+00 5.747233e-27
-3.270000e+00 4.781828e-27
-3.260000e+00 3.508093e-27
-3.250000e+00 1.927565e-27
-3.240000e+00 5.301345e-29
-3.230000e+00 -2.090443e-27
-3.220000e+00 -4.464514e-27
-3.210000e+00 -7.017268e-27
-3.200000e+00 -9.683099e-27
-3.190000e+00 -1.238318e-26
-3.180000e+00 -1.502647e-26
-3.170000e+00 -1.751124e-26
-3.160000e+00 -1.972732e-26
-3.150000e+00 -2.155877e-26
-3.140000e+00 -2.288734e-26
-3.130000e+00 -2.359630e-26
-3.120000e+00 -2.357484e-26
-3.110000e+00 -2.272284e-26
-3.100000e+00 -2.095587e-26
-3.090000e+00 -1.821033e-26
-3.080000e+00 -1.444860e-26
-3.070000e+00 -9.663770e-27
-3.060000e+00 -3.884167e-27
-3.050000e+00 2.822963e-27
-3.040000e+00 1.034860e-26
-3.030000e+00 1.854014e-26
-3.020000e+00 2.720103e-26
-3.010000e+00 3.609174e-26
-3.000000e+00 4.493252e-26
-2.990000e+00 5.340792e-26
-2.980000e+00 6.117306e-26
-2.970000e+00 6.786193e-26
-2.960000e+00 7.309745e-26
-2.950000e+00 7.650311e-26
-2.940000e+00 7.771641e-26
-2.930000e+00 7.640327e-26
-2.920000e+00 7.227349e-26
-2.910000e+00 6.509656e-26
-2.900000e+00 5.471761e-26
-2.890000e+00 4.107255e-26
-2.880000e+00 2.420213e-26
-2.870000e+00 4.264220e-27
-2.860000e+00 -1.845663e-26
-2.850000e+00 -4.354264e-26
-2.840000e+00 -7.044011e-26
-2.830000e+00 -9.846113e-26
-2.820000e+00 -1.267901e-25
-2.810000e+00 -1.544954e-25
-2.800000e+00 -1.805472e-25
-2.790000e+00 -2.038397e-25
-2.780000e+00 -2.232201e-25
-2.770000e+00 -2.375219e-25
-2.760000e+00 -2.456034e-25
-2.750000e+00 -2.463899e-25
-2.740000e+00 -2.389189e-25
-2.730000e+00 -2.223872e-25
-2.720000e+00 -1.961984e-25
-2.710000e+00 -1.600086e-25
-2.700000e+00 -1.137705e-25
-2.690000e+00 -5.777145e-26
-2.680000e+00 7.334809e-27
-2.670000e+00 8.050472e-26
-2.660000e+00 1.602920e-25
-2.650000e+00 2.448471e-25
-2.640000e+00 3.319299e-25
-2.630000e+00 4.189375e-25
-2.620000e+00 5.029473e-25
-2.610000e+00 5.807769e-25
-2.600000e+00 6.490588e-25
-2.590000e+00 7.043311e-25
-2.580000e+00 7.431425e-25
-2.570000e+00 7.621689e-25
-2.560000e+00 7.583399e-25
-2.550000e+00 7.289720e-25
-2.540000e+00 6.719040e-25
-2.530000e+00 5.856317e-25
-2.520000e+00 4.694373e-25
-2.510000e+00 3.235049e-25
-2.500000e+00 1.490235e-25
-2.490000e+00 -5.173512e-26
-2.480000e+00 -2.753630e-25
-2.470000e+00 -5.172947e-25
-2.460000e+00 -7.718220e-25
-2.450000e+00 -1.032149e-24
-2.440000e+00 -1.290486e-24
-2.430000e+00 -1.538195e-24
-2.420000e+00 -1.765968e-24
-2.410000e+00 -1.964057e-24
-2.400000e+00 -2.122545e-24
-2.390000e+00 -2.231646e-24
-2.380000e+00 -2.282039e-24
-2.370000e+00 -2.265227e-24
-2.360000e+00 -2.173906e-24
-2.350000e+00 -2.002337e-24
-2.340000e+00 -1.746709e-24
-2.330000e+00 -1.405480e-24
-2.320000e+00 -9.796802e-25
-2.310000e+00 -4.731725e-25
-2.300000e+00 1.071629e-25
-2.290000e+00 7.513097e-25
-2.280000e+00 1.446091e-24
-2.270000e+00 2.175240e-24
-2.260000e+00 2.919585e-24
-2.250000e+00 3.657341e-24
-2.240000e+00 4.364519e-24
-2.230000e+00 5.015452e-24
-2.220000e+00 5.583431e-24
-2.210000e+00 6.041438e-24
-2.200000e+00 6.362973e-24
-2.190000e+00 6.522951e-24
-2.180000e+00 6.498651e-24
-2.170000e+00 6.270672e-24
-2.160000e+00 5.823917e-24
-2.150000e+00 5.148509e-24
-2.140000e+00 4.240662e-24
-2.130000e+00 3.103436e-24
-2.120000e+00 1.747353e-24
-2.110000e+00 1.908512e-25
-2.100000e+00 -1.539478e-24
-2.090000e+00 -3.408875e-24
-2.080000e+00 -5.374656e-24
-2.070000e+00 -7.386739e-24
-2.060000e+00 -9.388440e-24
-2.050000e+00 -1.131757e-23
-2.040000e+00 -1.310782e-23
-2.030000e+00 -1.469039e-23
-2.020000e+00 -1.599584e-23
-2.010000e+00 -1.695625e-23
-2.000000e+00 -1.750742e-23
-1.990000e+00 -1.759120e-23
-1.980000e+00 -1.715794e-23
-1.970000e+00 -1.616877e-23
-1.960000e+00 -1.459795e-23
-1.950000e+00 -1.243482e-23
-1.940000e+00 -9.685682e-24
-1.930000e+00 -6.375187e-24
-1.920000e+00 -2.547341e-24
-1.910000e+00 1.733973e-24
-1.900000e+00 6.385090e-24
-1.890000e+00 1.130323e-23
-1.880000e+00 1.636783e-23
-1.870000e+00 2.144257e-23
-1.860000e+00 2.637804e-23
-1.850000e+00 3.101506e-23
-1.840000e+00 3.518864e-23
-1.830000e+00 3.873238e-23
-1.820000e+00 4.148347e-23
-1.810000e+00 4.328784e-23
-1.800000e+00 4.400568e-23
-1.790000e+00 4.351688e-23
-1.780000e+00 4.172642e-23
-1.770000e+00 3.856943e-23
-1.760000e+00 3.401584e-23
-1.750000e+00 2.807425e-23
-1.740000e+00 2.079513e-23
-1.730000e+00 1.227279e-23
-1.720000e+00 2.646422e-24
-1.710000e+00 -7.900308e-24
-1.700000e+00 -1.914095e-23
-1.690000e+00 -3.080948e-23
-1.680000e+00 -4.260493e-23
-1.670000e+00 -5.419745e-23
-1.660000e+00 -6.523582e-23
-1.650000e+00 -7.535615e-23
-1.640000e+00 -8.419170e-23
-1.630000e+00 -9.138355e-23
-1.620000e+00 -9.659201e-23
-1.610000e+00 -9.950813e-23
-1.600000e+00 -9.986543e-23
-1.590000e+00 -9.745114e-23
-1.580000e+00 -9.211664e-23
-1.570000e+00 -8.378689e-23
-1.560000e+00 -7.246827e-23
-1.550000e+00 -5.825465e-23
-1.540000e+00 -4.133109e-23
-1.530000e+00 -2.197525e-23
-1.520000e+00 -5.559260e-25
-1.510000e+00 2.247114e-23
-1.500000e+00 4.657051e-23
-1.490000e+00 7.113716e-23
-1.480000e+00 9.550951e-23
-1.470000e+00 1.189851e-22
-1.460000e+00 1.408385e-22
-1.450000e+00 1.603415e-22
-1.440000e+00 1.767844e-22
-1.430000e+00 1.894983e-22
-1.420000e+00 1.978782e-22
-1.410000e+00 2.014047e-22
-1.400000e+00 1.996657e-22
-1.390000e+00 1.923754e-22
-1.380000e+00 1.793909e-22
-1.370000e+00 1.607258e-22
-1.360000e+00 1.365596e-22
-1.350000e+00 1.072421e-22
-1.340000e+00 7.329421e-23
-1.330000e+00 3.540172e-23
-1.320000e+00 -5.595193e-24
-1.310000e+00 -4.871817e-23
-1.300000e+00 -9.287283e-23
-1.290000e+00 -1.368750e-22
-1.280000e+00 -1.794819e-22
-1.270000e+00 -2.194273e-22
-1.260000e+00 -2.554585e-22
-1.250000e+00 -2.863764e-22
-1.240000e+00 -3.110746e-22
-1.230000e+00 -3.285796e-22
-1.220000e+00 -3.380873e-22
-1.210000e+00 -3.389969e-22
-1.200000e+00 -3.309397e-22
-1.190000e+00 -3.138028e-22
-1.180000e+00 -2.877439e-22
-1.170000e+00 -2.531992e-22
-1.160000e+00 -2.108831e-22
-1.150000e+00 -1.617752e-22
-1.140000e+00 -1.071019e-22
-1.130000e+00 -4.830531e-23
-1.120000e+00 1.299573e-23
-1.110000e+00 7.505293e-23
-1.100000e+00 1.360433e-22
-1.090000e+00 1.941297e-22
-1.080000e+00 2.475242e-22
-1.070000e+00 2.945544e-22
-1.060000e+00 3.337287e-22
-1.050000e+00 3.637984e-22
-1.040000e+00 3.838147e-22
-1.030000e+00 3.931769e-22
-1.020000e+00 3.916714e-22
-1.010000e+00 3.794968e-22
-1.000000e+00 3.572747e-22
-9.900002e-01 3.260446e-22
-9.800000e-01 2.872425e-22
-9.700003e-01 2.426599e-22
-9.600000e-01 1.943857e-22
-9.500003e-01 1.447348e-22
-9.400001e-01 9.615554e-23
-9.300003e-01 5.113065e-23
-9.200001e-01 1.206191e-23
-9.100003e-01 -1.884562e-23
-9.000001e-01 -3.970623e-23
-8.900003e-01 -4.907011e-23
-8.800001e-01 -4.603527e-23
-8.700004e-01 -3.034499e-23
-8.600001e-01 -2.467920e-24
-8.500004e-01 3.634476e-23
-8.400002e-01 8.403051e-23
-8.299999e-01 1.377173e-22
-8.200002e-01 1.937616e-22
-8.099999e-01 2.478243e-22
-8.000002e-01 2.949842e-22
-7.900000e-01 3.298914e-22
-7.800002e-01 3.469555e-22
-7.700000e-01 3.405712e-22
-7.600002e-01 3.053672e-22
-7.500000e-01 2.364872e-22
-7.400002e-01 1.298734e-22
-7.300000e-01 -1.743756e-23
-7.200003e-01 -2.070241e-22
-7.100000e-01 -4.388073e-22
-7.000003e-01 -7.108115e-22
-6.900001e-01 -1.018964e-21
-6.800003e-01 -1.356944e-21
-6.700001e-01 -1.716113e-21
-6.600003e-01 -2.085508e-21
-6.500001e-01 -2.451932e-21
-6.400003e-01 -2.800134e-21
-6.300001e-01 -3.113093e-21
-6.200004e-01 -3.372400e-21
-6.100001e-01 -3.558749e-21
-6.000004e-01 -3.652512e-21
-5.900002e-01 -3.634418e-21
-5.800004e-01 -3.486290e-21
-5.700002e-01 -3.191854e-21
-5.599999e-01 -2.737579e-21
-5.500002e-01 -2.113534e-21
-5.400000e-01 -1.314222e-21
-5.300002e-01 -3.393921e-22
-5.200000e-01 8.052499e-22
-5.100002e-01 2.107421e-21
-5.000000e-01 3.547797e-21
-4.900002e-01 5.099705e-21
-4.800000e-01 6.729044e-21
-4.700003e-01 8.394417e-21
-4.600000e-01 1.004753e-20
-4.500003e-01 1.163387e-20
-4.400001e-01 1.309364e-20
-4.300003e-01 1.436299e-20
-4.200001e-01 1.537558e-20
-4.100003e-01 1.606429e-20
-4.000001e-01 1.636329e-20
-3.900003e-01 1.621025e-20
-3.800001e-01 1.554868e-20
-3.700004e-01 1.433045e-20
-3.600001e-01 1.251827e-20
-3.500004e-01 1.008817e-20
-3.400002e-01 7.031847e-21
-3.300004e-01 3.358830e-21
-3.200002e-01 -9.016813e-22
-3.099999e-01 -5.699326e-21
-3.000002e-01 -1.096159e-20
-2.900000e-01 -1.659330e-20
-2.800002e-01 -2.247681e-20
-2.700000e-01 -2.847284e-20
-2.600002e-01 -3.442202e-20
-2.500000e-01 -4.014728e-20
-2.400002e-01 -4.545690e-20
-2.300000e-01 -5.014844e-20
-2.200003e-01 -5.401335e-20
-2.100000e-01 -5.684231e-20
-2.000003e-01 -5.843110e-20
-1.900001e-01 -5.858706e-20
-1.800003e-01 -5.713583e-20
-1.700001e-01 -5.392831e-20
-1.600003e-01 -4.884776e-20
-1.500001e-01 -4.181650e-20
-1.400003e-01 -3.280255e-20
-1.300001e-01 -2.182532e-20
-1.200004e-01 -8.960746e-21
-1.100001e-01 5.654696e-21
-1.000004e-01 2.182136e-20
-9.000015e-02 3.927514e-20
-8.000040e-02 5.768786e-20
-7.000017e-02 7.666948e-20
-5.999994e-02 9.577231e-20
-5.000019e-02 1.144971e-19
-3.999996e-02 1.323011e-19
-3.000021e-02 1.486086e-19
-1.999998e-02 1.628226e-19
-1.000023e-02 1.743390e-19
0.000000e+00 1.825617e-19
1.000023e-02 1.869200e-19
1.999950e-02 1.868857e-19
2.999973e-02 1.819918e-19
3.999996e-02 1.718509e-19
5.000019e-02 1.561734e-19
5.999947e-02 1.347850e-19
6.999969e-02 1.076427e-19
7.999992e-02 7.484833e-20
9.000015e-02 3.666096e-20
9.999943e-02 -6.495138e-21
1.099997e-01 -5.402503e-20
1.199999e-01 -1.051622e-19
1.300001e-01 -1.589719e-19
1.399994e-01 -2.143587e-19
1.499996e-01 -2.700800e-19
1.599998e-01 -3.247631e-19
1.700001e-01 -3.769283e-19
1.799994e-01 -4.250166e-19
1.899996e-01 -4.674215e-19
1.999998e-01 -5.025260e-19
2.100000e-01 -5.287419e-19
2.200003e-01 -5.445524e-19
2.299995e-01 -5.485573e-19
2.399998e-01 -5.395186e-19
2.500000e-01 -5.164059e-19
2.600002e-01 -4.784415e-19
2.699995e-01 -4.251421e-19
2.799997e-01 -3.563576e-19
2.900000e-01 -2.723045e-19
3.000002e-01 -1.735929e-19
3.099995e-01 -6.124686e-20
3.199997e-01 6.328484e-20
3.299999e-01 1.981259e-19
3.400002e-01 3.409826e-19
3.499994e-01 4.891620e-19
3.599997e-01 6.396039e-19
3.699999e-01 7.889227e-19
3.800001e-01 9.334617e-19
3.899994e-01 1.069359e-18
3.999996e-01 1.192622e-18
4.099998e-01 1.299212e-18
4.200001e-01 1.385141e-18
4.299994e-01 1.446564e-18
4.399996e-01 1.479890e-18
4.499998e-01 1.481883e-18
4.600000e-01 1.449772e-18
4.700003e-01 1.381353e-18
4.799995e-01 1.275085e-18
4.899998e-01 1.130186e-18
5.000000e-01 9.467076e-19
5.100002e-01 7.256001e-19
5.199995e-01 4.687675e-19
5.299997e-01 1.790939e-19
5.400000e-01 -1.395436e-19
5.500002e-01 -4.822891e-19
5.599995e-01 -8.433409e-19
5.699997e-01 -1.216014e-18
5.799999e-01 -1.592825e-18
5.900002e-01 -1.965602e-18
5.999994e-01 -2.325624e-18
6.099997e-01 -2.663771e-18
6.199999e-01 -2.970708e-18
6.300001e-01 -3.237081e-18
6.399994e-01 -3.453723e-18
6.499996e-01 -3.611883e-18
6.599998e-01 -3.703450e-18
6.700001e-01 -3.721185e-18
6.799994e-01 -3.658947e-18
6.899996e-01 -3.511912e-18
6.999998e-01 -3.276775e-18
7.100000e-01 -2.951936e-18
7.200003e-01 -2.537652e-18
7.299995e-01 -2.036170e-18
7.399998e-01 -1.451817e-18
7.500000e-01 -7.910455e-19
7.600002e-01 -6.244663e-20
7.699995e-01 7.232974e-19
7.799997e-01 1.553497e-18
7.900000e-01 2.413600e-18
8.000002e-01 3.287379e-18
8.099995e-01 4.157174e-18
8.199997e-01 5.004183e-18
8.299999e-01 5.808784e-18
8.400002e-01 6.550912e-18
8.499994e-01 7.210465e-18
8.599997e-01 7.767725e-18
8.699999e-01 8.203814e-18
8.800001e-01 8.501152e-18
8.899994e-01 8.643912e-18
8.999996e-01 8.618473e-18
9.099998e-01 8.413845e-18
9.200001e-01 8.022074e-18
9.299994e-01 7.438591e-18
9.399996e-01 6.662529e-18
9.499998e-01 5.696960e-18
9.600000e-01 4.549078e-18
9.700003e-01 3.230302e-18
9.799995e-01 1.756276e-18
9.899998e-01 1.468213e-19
1.000000e+00 -1.574240e-18
1.010000e+00 -3.379349e-18
1.020000e+00 -5.237534e-18
1.030000e+00 -7.114867e-18
1.040000e+00 -8.974999e-18
1.050000e+00 -1.077972e-17
1.059999e+00 -1.248970e-17
1.070000e+00 -1.406513e-17
1.080000e+00 -1.546661e-17
1.090000e+00 -1.665588e-17
1.099999e+00 -1.759667e-17
1.110000e+00 -1.825558e-17
1.120000e+00 -1.860284e-17
1.130000e+00 -1.861313e-17
1.139999e+00 -1.826632e-17
1.150000e+00 -1.754812e-17
1.160000e+00 -1.645068e-17
1.170000e+00 -1.497309e-17
1.179999e+00 -1.312171e-17
1.190000e+00 -1.091046e-17
1.200000e+00 -8.360879e-18
1.210000e+00 -5.502150e-18
1.220000e+00 -2.370856e-18
1.230000e+00 9.893227e-19
1.240000e+00 4.528124e-18
1.250000e+00 8.189350e-18
1.260000e+00 1.191163e-17
1.270000e+00 1.562935e-17
1.280000e+00 1.927368e-17
1.290000e+00 2.277376e-17
1.300000e+00 2.605786e-17
1.309999e+00 2.905471e-17
1.320000e+00 3.169486e-17
1.330000e+00 3.391202e-17
1.340000e+00 3.564435e-17
1.349999e+00 3.683589e-17
1.360000e+00 3.743777e-17
1.370000e+00 3.740936e-17
1.380000e+00 3.671942e-17
1.389999e+00 3.534699e-17
1.400000e+00 3.328220e-17
1.410000e+00 3.052692e-17
1.420000e+00 2.709514e-17
1.429999e+00 2.301327e-17
1.440000e+00 1.832016e-17
1.450000e+00 1.306686e-17
1.460000e+00 7.316277e-18
1.469999e+00 1.142507e-18
1.480000e+00 -5.369967e-18
1.490000e+00 -1.212732e-17
1.500000e+00 -1.902761e-17
1.510000e+00 -2.596225e-17
1.520000e+00 -3.281745e-17
1.530000e+00 -3.947602e-17
1.540000e+00 -4.581905e-17
1.550000e+00 -5.172791e-17
1.559999e+00 -5.708610e-17
1.570000e+00 -6.178125e-17
1.580000e+00 -6.570700e-17
1.590000e+00 -6.876499e-17
1.599999e+00 -7.086661e-17
1.610000e+00 -7.193483e-17
1.620000e+00 -7.190571e-17
1.630000e+00 -7.072987e-17
1.639999e+00 -6.837388e-17
1.650000e+00 -6.482117e-17
1.660000e+00 -6.007293e-17
1.670000e+00 -5.414880e-17
1.679999e+00 -4.708711e-17
1.690000e+00 -3.894508e-17
1.700000e+00 -2.979859e-17
1.710000e+00 -1.974167e-17
1.719999e+00 -8.885929e-18
1.730000e+00 2.640490e-18
1.740000e+00 1.469426e-17
1.750000e+00 2.711825e-17
1.760000e+00 3.974335e-17
1.770000e+00 5.239038e-17
1.780000e+00 6.487229e-17
1.790000e+00 7.699659e-17
1.800000e+00 8.856770e-17
1.809999e+00 9.938977e-17
1.820000e+00 1.092693e-16
1.830000e+00 1.180181e-16
1.840000e+00 1.254560e-16
1.849999e+00 1.314137e-16
1.860000e+00 1.357358e-16
1.870000e+00 1.382833e-16
1.880000e+00 1.389364e-16
1.889999e+00 1.375969e-16
1.900000e+00 1.341908e-16
1.910000e+00 1.286697e-16
1.920000e+00 1.210133e-16
1.929999e+00 1.112306e-16
1.940000e+00 9.936080e-17
1.950000e+00 8.547466e-17
1.960000e+00 6.967434e-17
1.969999e+00 5.209363e-17
1.980000e+00 3.289741e-17
1.990000e+00 1.228050e-17
2.000000e+00 -9.533600e-18
2.010000e+00 -3.229471e-17
2.020000e+00 -5.572845e-17
2.030000e+00 -7.953900e-17
2.040000e+00 -1.034125e-16
2.050000e+00 -1.270208e-16
2.059999e+00 -1.500255e-16
2.070000e+00 -1.720823e-16
2.080000e+00 -1.928458e-16
2.090000e+00 -2.119744e-16
2.099999e+00 -2.291351e-16
2.110000e+00 -2.440091e-16
2.120000e+00 -2.562959e-16
2.130000e+00 -2.657192e-16
2.139999e+00 -2.720308e-16
2.150000e+00 -2.750155e-16
2.160000e+00 -2.744948e-16
2.170000e+00 -2.703306e-16
2.179999e+00 -2.624278e-16
2.190000e+00 -2.507372e-16
2.200000e+00 -2.352567e-16
2.210000e+00 -2.160324e-16
2.219999e+00 -1.931589e-16
2.230000e+00 -1.667787e-16
2.240000e+00 -1.370808e-16
2.250000e+00 -1.042986e-16
2.260000e+00 -6.870802e-17
2.270000e+00 -3.062285e-17
2.280000e+00 9.608093e-18
2.290000e+00 5.160539e-17
2.300000e+00 9.496389e-17
2.309999e+00 1.392571e-16
2.320000e+00 1.840423e-16
2.330000e+00 2.288652e-16
2.340000e+00 2.732643e-16
2.349999e+00 3.167753e-16
2.360000e+00 3.589351e-16
2.370000e+00 3.992842e-16
2.380000e+00 4.373700e-16
2.389999e+00 4.727480e-16
2.400000e+00 5.049835e-16
2.410000e+00 5.336512e-16
2.420000e+00 5.583361e-16
2.429999e+00 5.786310e-16
2.440000e+00 5.941366e-16
2.450000e+00 6.044585e-16
2.460000e+00 6.092070e-16
2.469999e+00 6.079938e-16
2.480000e+00 6.004318e-16
2.490000e+00 5.861348e-16
2.500000e+00 5.647169e-16
2.510000e+00 5.357953e-16
2.520000e+00 4.989939e-16
2.530000e+00 4.539468e-16
2.540000e+00 4.003087e-16
2.550000e+00 3.377621e-16
2.559999e+00 2.660316e-16
2.570000e+00 1.848972e-16
2.580000e+00 9.421352e-17
2.590000e+00 -6.071269e-18
2.599999e+00 -1.158929e-16
2.610000e+00 -2.350470e-16
2.620000e+00 -3.631635e-16
2.630000e+00 -4.996796e-16
2.639999e+00 -6.438149e-16
2.650000e+00 -7.945441e-16
2.660000e+00 -9.505731e-16
2.670000e+00 -1.110319e-15
2.679999e+00 -1.271891e-15
2.690000e+00 -1.433079e-15
2.700000e+00 -1.591346e-15
2.710000e+00 -1.743830e-15
2.719999e+00 -1.887356e-15
2.730000e+00 -2.018450e-15
2.740000e+00 -2.133374e-15
2.750000e+00 -2.228164e-15
2.760000e+00 -2.298684e-15
2.770000e+00 -2.340691e-15
2.780000e+00 -2.349914e-15
2.790000e+00 -2.322141e-15
2.800000e+00 -2.253322e-15
2.809999e+00 -2.139678e-15
2.820000e+00 -1.977823e-15
2.830000e+00 -1.764886e-15
2.840000e+00 -1.498650e-15
2.849999e+00 -1.177678e-15
2.860000e+00 -8.014481e-16
2.870000e+00 -3.704832e-16
2.880000e+00 1.135339e-16
2.889999e+00 6.476488e-16
2.900000e+00 1.227548e-15
2.910000e+00 1.847480e-15
2.920000e+00 2.500219e-15
2.929999e+00 3.177038e-15
2.940000e+00 3.867725e-15
2.950000e+00 4.560632e-15
2.960000e+00 5.242757e-15
2.969999e+00 5.899878e-15
2.980000e+00 6.516715e-15
2.990000e+00 7.077143e-15
3.000000e+00 7.564444e-15
3.010000e+00 7.961607e-15
3.020000e+00 8.251648e-15
3.030000e+00 8.417980e-15