-8.000000e+00 0.000000e+00
-7.990000e+00 0.000000e+00
-7.980000e+00 0.000000e+00
-7.970000e+00 0.000000e+00
-7.960000e+00 0.000000e+00
-7.950000e+00 0.000000e+00
-7.940000e+00 -1.079775e-32
-7.930000e+00 -1.413115e-31
-7.920000e+00 -9.963279e-31
-7.910000e+00 -5.020068e-30
-7.900000e+00 -2.024418e-29
-7.890000e+00 -6.941956e-29
-7.880000e+00 -2.101136e-28
-7.870000e+00 -5.755473e-28
-7.860000e+00 -1.452381e-27
-7.850000e+00 -3.421133e-27
-7.840000e+00 -7.598353e-27
-7.830000e+00 -1.603812e-26
-7.820000e+00 -3.237489e-26
-7.810000e+00 -6.282126e-26
-7.800000e+00 -1.176738e-25
-7.790000e+00 -2.135265e-25
-7.780000e+00 -3.764480e-25
-7.770000e+00 -6.464387e-25
-7.760000e+00 -1.083550e-24
-7.750000e+00 -1.776102e-24
-7.740000e+00 -2.851521e-24
-7.730000e+00 -4.490309e-24
-7.720000e+00 -6.943711e-24
-7.710000e+00 -1.055562e-23
-7.700000e+00 -1.578906e-23
-7.690000e+00 -2.325774e-23
-7.680000e+00 -3.376236e-23
-7.670000e+00 -4.833165e-23
-7.660000e+00 -6.826720e-23
-7.650000e+00 -9.519051e-23
-7.640000e+00 -1.310903e-22
-7.630000e+00 -1.783671e-22
-7.620000e+00 -2.398710e-22
-7.610000e+00 -3.189267e-22
-7.600000e+00 -4.193410e-22
-7.590000e+00 -5.453877e-22
-7.580000e+00 -7.017550e-22
-7.570000e+00 -8.934537e-22
-7.560000e+00 -1.125679e-21
-7.550000e+00 -1.403609e-21
-7.540000e+00 -1.732134e-21
-7.530000e+00 -2.115533e-21
-7.520000e+00 -2.557050e-21
-7.510000e+00 -3.058415e-21
-7.500000e+00 -3.619296e-21
-7.490000e+00 -4.236678e-21
-7.480000e+00 -4.904244e-21
-7.470000e+00 -5.611652e-21
-7.460000e+00 -6.343958e-21
-7.450000e+00 -7.080981e-21
-7.440000e+00 -7.796830e-21
-7.430000e+00 -8.459578e-21
-7.420000e+00 -9.031160e-21
-7.410000e+00 -9.467566e-21
-7.400000e+00 -9.719317e-21
-7.390000e+00 -9.732418e-21
-7.380000e+00 -9.449749e-21
-7.370000e+00 -8.812886e-21
-7.360000e+00 -7.764520e-21
-7.350000e+00 -6.251304e-21
-7.340000e+00 -4.227268e-21
-7.330000e+00 -1.657535e-21
-7.320000e+00 1.477486e-21
-7.310000e+00 5.178006e-21
-7.300000e+00 9.420422e-21
-7.290000e+00 1.415340e-20
-7.280000e+00 1.929428e-20
-7.270000e+00 2.472631e-20
-7.260000e+00 3.029683e-20
-7.250000e+00 3.581711e-20
-7.240000e+00 4.106339e-20
-7.230000e+00 4.578036e-20
-7.220000e+00 4.968639e-20
-7.210000e+00 5.248138e-20
-7.200000e+00 5.385677e-20
-7.190000e+00 5.350807e-20
-7.180000e+00 5.114935e-20
-7.170000e+00 4.652976e-20
-7.160000e+00 3.945142e-20
-7.150000e+00 2.978770e-20
-7.140000e+00 1.750189e-20
-7.130000e+00 2.664339e-21
-7.120000e+00 -1.453161e-20
-7.110000e+00 -3.375840e-20
-7.100000e+00 -5.454571e-20
-7.090000e+00 -7.627898e-20
-7.080000e+00 -9.820373e-20
-7.070000e+00 -1.194380e-19
-7.060000e+00 -1.389928e-19
-7.050000e+00 -1.558021e-19
-7.040000e+00 -1.687605e-19
-7.030000e+00 -1.767704e-19
-7.020000e+00 -1.787964e-19
-7.010000e+00 -1.739254e-19
-7.000000e+00 -1.614315e-19
-6.990000e+00 -1.408412e-19
-6.980000e+00 -1.119981e-19
-6.970000e+00 -7.512235e-20
-6.960000e+00 -3.085959e-20
-6.950000e+00 1.968163e-20
-6.940000e+00 7.491052e-20
-6.930000e+00 1.327558e-19
-6.920000e+00 1.906936e-19
-6.910000e+00 2.457988e-19
-6.900000e+00 2.948321e-19
-6.890000e+00 3.343526e-19
-6.880000e+00 3.608605e-19
-6.870000e+00 3.709681e-19
-6.860000e+00 3.615944e-19
-6.850000e+00 3.301762e-19
-6.840000e+00 2.748869e-19
-6.830000e+00 1.948554e-19
-6.820000e+00 9.037797e-20
-6.810000e+00 -3.690115e-20
-6.800000e+00 -1.838409e-19
-6.790000e+00 -3.457087e-19
-6.780000e+00 -5.161484e-19
-6.770000e+00 -6.872249e-19
-6.760000e+00 -8.495579e-19
-6.750000e+00 -9.925497e-19
-6.740000e+00 -1.104713e-18
-6.730000e+00 -1.174097e-18
-6.720000e+00 -1.188813e-18
-6.710000e+00 -1.137649e-18
-6.700000e+00 -1.010735e-18
-6.690000e+00 -8.002830e-19
-6.680000e+00 -5.013391e-19
-6.670000e+00 -1.124981e-19
-6.660000e+00 3.633808e-19
-6.650000e+00 9.186077e-19
-6.640000e+00 1.540182e-18
-6.630000e+00 2.209522e-18
-6.620000e+00 2.902412e-18
-6.610000e+00 3.589169e-18
-6.600000e+00 4.235189e-18
-6.590000e+00 4.801712e-18
-6.580000e+00 5.246973e-18
-6.570000e+00 5.527669e-18
-6.560000e+00 5.600720e-18
-6.550000e+00 5.425324e-18
-6.540000e+00 4.965233e-18
-6.530000e+00 4.191162e-18
-6.520000e+00 3.083304e-18
-6.510000e+00 1.633748e-18
-6.500000e+00 -1.512191e-19
-6.490000e+00 -2.249082e-18
-6.480000e+00 -4.619570e-18
-6.470000e+00 -7.203578e-18
-6.460000e+00 -9.922910e-18
-6.450000e+00 -1.268070e-17
-6.440000e+00 -1.536287e-17
-6.430000e+00 -1.784052e-17
-6.420000e+00 -1.997334e-17
-6.410000e+00 -2.161403e-17
-6.400000e+00 -2.261383e-17
-6.390000e+00 -2.282874e-17
-6.380000e+00 -2.212673e-17
-6.370000e+00 -2.039518e-17
-6.360000e+00 -1.754897e-17
-6.350000e+00 -1.353816e-17
-6.340000e+00 -8.355555e-18
-6.330000e+00 -2.043433e-18
-6.320000e+00 5.300984e-18
-6.310000e+00 1.352156e-17
-6.300000e+00 2.240124e-17
-6.290000e+00 3.166243e-17
-6.280000e+00 4.097020e-17
-6.270000e+00 4.993824e-17
-6.260000e+00 5.813783e-17
-6.250000e+00 6.511028e-17
-6.240000e+00 7.038236e-17
-6.230000e+00 7.348438e-17
-6.220000e+00 7.397043e-17
-6.210000e+00 7.144172e-17
-6.200000e+00 6.556995e-17
-6.190000e+00 5.612152e-17
-6.180000e+00 4.298147e-17
-6.170000e+00 2.617515e-17
-6.160000e+00 5.887784e-18
-6.150000e+00 -1.752070e-17
-6.140000e+00 -4.350529e-17
-6.130000e+00 -7.133291e-17
-6.120000e+00 -1.000856e-16
-6.110000e+00 -1.286733e-16
-6.100000e+00 -1.558539e-16
-6.090000e+00 -1.802646e-16
-6.080000e+00 -2.004611e-16
-6.070000e+00 -2.149656e-16
-6.060000e+00 -2.223245e-16
-6.050000e+00 -2.211720e-16
-6.040000e+00 -2.102980e-16
-6.030000e+00 -1.887222e-16
-6.020000e+00 -1.557655e-16
-6.010000e+00 -1.111218e-16
-6.000000e+00 -5.492389e-17
-5.990000e+00 1.220073e-17
-5.980000e+00 8.908377e-17
-5.970000e+00 1.739876e-16
-5.960000e+00 2.645938e-16
-5.950000e+00 3.580154e-16
-5.940000e+00 4.508305e-16
-5.930000e+00 5.391458e-16
-5.920000e+00 6.186817e-16
-5.910000e+00 6.848905e-16
-5.900000e+00 7.330957e-16
-5.890000e+00 7.586599e-16
-5.880000e+00 7.571682e-16
-5.870000e+00 7.246348e-16
-5.860000e+00 6.577109e-16
-5.850000e+00 5.539079e-16
-5.840000e+00 4.118066e-16
-5.830000e+00 2.312609e-16
-5.820000e+00 1.357285e-17
-5.810000e+00 -2.383562e-16
-5.800000e+00 -5.199205e-16
-5.790000e+00 -8.247544e-16
-5.780000e+00 -1.144731e-15
-5.770000e+00 -1.470032e-15
-5.760000e+00 -1.789288e-15
-5.750000e+00 -2.089787e-15
-5.740000e+00 -2.357773e-15
-5.730000e+00 -2.578801e-15
-5.720000e+00 -2.738184e-15
-5.710000e+00 -2.821485e-15
-5.700000e+00 -2.815077e-15
-5.690000e+00 -2.706733e-15
-5.680000e+00 -2.486238e-15
-5.670000e+00 -2.146016e-15
-5.660000e+00 -1.681730e-15
-5.650000e+00 -1.092835e-15
-5.640000e+00 -3.830801e-16
-5.630000e+00 4.390979e-16
-5.620000e+00 1.360282e-15
-5.610000e+00 2.361940e-15
-5.600000e+00 3.420438e-15
-5.590000e+00 4.507233e-15
-5.580000e+00 5.589264e-15
-5.570000e+00 6.629556e-15
-5.560000e+00 7.587989e-15
-5.550000e+00 8.422308e-15
-5.540000e+00 9.089298e-15
-5.530000e+00 9.546135e-15
-5.520000e+00 9.751845e-15
-5.510000e+00 9.668923e-15
-5.500000e+00 9.264955e-15
-5.490000e+00 8.514291e-15
-5.480000e+00 7.399648e-15
-5.470000e+00 5.913636e-15
-5.460000e+00 4.060078e-15
-5.450000e+00 1.855146e-15
-5.440000e+00 -6.718159e-16
-5.430000e+00 -3.477808e-15
-5.420000e+00 -6.506101e-15
-5.410000e+00 -9.686597e-15
-5.400000e+00 -1.293665e-14
-5.390000e+00 -1.616242e-14
-5.380000e+00 -1.926071e-14
-5.370000e+00 -2.212127e-14
-5.360000e+00 -2.462963e-14
-5.350000e+00 -2.667031e-14
-5.340000e+00 -2.813035e-14
-5.330000e+00 -2.890323e-14
-5.320000e+00 -2.889284e-14
-5.310000e+00 -2.801763e-14
-5.300000e+00 -2.621454e-14
-5.290000e+00 -2.344290e-14
-5.280000e+00 -1.968793e-14
-5.270000e+00 -1.496367e-14
-5.260000e+00 -9.315402e-15
-5.250000e+00 -2.821193e-15
-5.240000e+00 4.407320e-15
-5.230000e+00 1.222526e-14
-5.220000e+00 2.045585e-14
-5.210000e+00 2.889289e-14
-5.200000e+00 3.730441e-14
-5.190000e+00 4.543742e-14
-5.180000e+00 5.302381e-14
-5.170000e+00 5.978722e-14
-5.160000e+00 6.545078e-14
-5.150000e+00 6.974567e-14
-5.140000e+00 7.241980e-14
-5.130000e+00 7.324750e-14
-5.120000e+00 7.203831e-14
-5.110000e+00 6.864619e-14
-5.100000e+00 6.297772e-14
-5.090000e+00 5.499969e-14
-5.080000e+00 4.474514e-14
-5.070000e+00 3.231811e-14
-5.060000e+00 1.789663e-14
-5.050000e+00 1.733497e-15
-5.040000e+00 -1.584504e-14
-5.030000e+00 -3.444301e-14
-5.020000e+00 -5.360089e-14
-5.010000e+00 -7.280425e-14
-5.000000e+00 -9.149468e-14
-4.990000e+00 -1.090832e-13
-4.980000e+00 -1.249656e-13
-4.970000e+00 -1.385389e-13
-4.960000e+00 -1.492205e-13
-4.950000e+00 -1.564666e-13
-4.940000e+00 -1.597916e-13
-4.930000e+00 -1.587886e-13
-4.920000e+00 -1.531462e-13
-4.910000e+00 -1.426662e-13
-4.900000e+00 -1.272784e-13
-4.890000e+00 -1.070527e-13
-4.880000e+00 -8.220749e-14
-4.870000e+00 -5.311511e-14
-4.860000e+00 -2.030217e-14
-4.850000e+00 1.555430e-14
-4.840000e+00 5.363558e-14
-4.830000e+00 9.299518e-14
-4.820000e+00 1.325773e-13
-4.810000e+00 1.712397e-13
-4.800000e+00 2.077823e-13
-4.790000e+00 2.409778e-13
-4.780000e+00 2.696065e-13
-4.770000e+00 2.924927e-13
-4.760000e+00 3.085443e-13
-4.750000e+00 3.167891e-13
-4.740000e+00 3.164146e-13
-4.730000e+00 3.068027e-13
-4.720000e+00 2.875617e-13
-4.710000e+00 2.585552e-13
-4.700000e+00 2.199236e-13
-4.690000e+00 1.721003e-13
-4.680000e+00 1.158195e-13
-4.670000e+00 5.211609e-14
-4.660000e+00 -1.768445e-14
-4.650000e+00 -9.198347e-14
-4.640000e+00 -1.689378e-13
-4.630000e+00 -2.464974e-13
-4.620000e+00 -3.224498e-13
-4.610000e+00 -3.944757e-13
-4.600000e+00 -4.602077e-13
-4.590000e+00 -5.172971e-13
-4.580000e+00 -5.634855e-13
-4.570000e+00 -5.966740e-13
-4.560000e+00 -6.149968e-13
-4.550000e+00 -6.168922e-13
-4.540000e+00 -6.011660e-13
-4.530000e+00 -5.670523e-13
-4.520000e+00 -5.142644e-13
-4.510000e+00 -4.430321e-13
-4.500000e+00 -3.541315e-13
-4.490000e+00 -2.488969e-13
-4.480000e+00 -1.292178e-13
-4.470000e+00 2.480379e-15
-4.460000e+00 1.432716e-13
-4.450000e+00 2.897815e-13
-4.440000e+00 4.382586e-13
-4.430000e+00 5.846563e-13
-4.420000e+00 7.247335e-13
-4.410000e+00 8.541618e-13
-4.400000e+00 9.686475e-13
-4.390000e+00 1.064054e-12
-4.380000e+00 1.136533e-12
-4.370000e+00 1.182648e-12
-4.360000e+00 1.199499e-12
-4.350000e+00 1.184842e-12
-4.340000e+00 1.137178e-12
-4.330000e+00 1.055853e-12
-4.320000e+00 9.411162e-13
-4.310000e+00 7.941624e-13
-4.300000e+00 6.171569e-13
-4.290000e+00 4.132219e-13
-4.280000e+00 1.863987e-13
-4.270000e+00 -5.841439e-14
-4.260000e+00 -3.155628e-13
-4.250000e+00 -5.787551e-13
-4.240000e+00 -8.412108e-13
-4.230000e+00 -1.095831e-12
-4.220000e+00 -1.335389e-12
-4.210000e+00 -1.552727e-12
-4.200000e+00 -1.740979e-12
-4.190000e+00 -1.893766e-12
-4.180000e+00 -2.005423e-12
-4.170000e+00 -2.071187e-12
-4.160000e+00 -2.087384e-12
-4.150000e+00 -2.051587e-12
-4.140000e+00 -1.962747e-12
-4.130000e+00 -1.821276e-12
-4.120000e+00 -1.629119e-12
-4.110000e+00 -1.389747e-12
-4.100000e+00 -1.108126e-12
-4.090000e+00 -7.906374e-13
-4.080000e+00 -4.449368e-13
-4.070000e+00 -7.976923e-14
-4.060000e+00 2.952363e-13
-4.050000e+00 6.698476e-13
-4.040000e+00 1.033519e-12
-4.030000e+00 1.375713e-12
-4.020000e+00 1.686236e-12
-4.010000e+00 1.955590e-12
-4.000000e+00 2.175308e-12
-3.990000e+00 2.338281e-12
-3.980000e+00 2.439064e-12
-3.970000e+00 2.474126e-12
-3.960000e+00 2.442076e-12
-3.950000e+00 2.343805e-12
-3.940000e+00 2.182576e-12
-3.930000e+00 1.964031e-12
-3.920000e+00 1.696130e-12
-3.910000e+00 1.388975e-12
-3.900000e+00 1.054591e-12
-3.890000e+00 7.065904e-13
-3.880000e+00 3.597737e-13
-3.870000e+00 2.964848e-14
-3.860000e+00 -2.680769e-13
-3.850000e+00 -5.181144e-13
-3.840000e+00 -7.061738e-13
-3.830000e+00 -8.195966e-13
-3.820000e+00 -8.479912e-13
-3.810000e+00 -7.838076e-13
-3.800000e+00 -6.228826e-13
-3.790000e+00 -3.649276e-13
-3.780000e+00 -1.389212e-14
-3.770000e+00 4.217692e-13
-3.760000e+00 9.289398e-13
-3.750000e+00 1.489888e-12
-3.740000e+00 2.082409e-12
-3.730000e+00 2.680187e-12
-3.720000e+00 3.253296e-12
-3.710000e+00 3.768899e-12
-3.700000e+00 4.192096e-12
-3.690000e+00 4.486929e-12
-3.680000e+00 4.617543e-12
-3.670000e+00 4.549425e-12
-3.660000e+00 4.250782e-12
-3.650000e+00 3.693902e-12
-3.640000e+00 2.856570e-12
-3.630000e+00 1.723501e-12
-3.620000e+00 2.875646e-13
-3.610000e+00 -1.448939e-12
-3.600000e+00 -3.473321e-12
-3.590000e+00 -5.761668e-12
-3.580000e+00 -8.278253e-12
-3.570000e+00 -1.097539e-11
-3.560000e+00 -1.379338e-11
-3.550000e+00 -1.666102e-11
-3.540000e+00 -1.949645e-11
-3.530000e+00 -2.220835e-11
-3.520000e+00 -2.469757e-11
-3.510000e+00 -2.685913e-11
-3.500000e+00 -2.858457e-11
-3.490000e+00 -2.976479e-11
-3.480000e+00 -3.029297e-11
-3.470000e+00 -3.006781e-11
-3.460000e+00 -2.899705e-11
-3.450000e+00 -2.700088e-11
-3.440000e+00 -2.401554e-11
-3.430000e+00 -1.999672e-11
-3.420000e+00 -1.492281e-11
-3.410000e+00 -8.797871e-12
-3.400000e+00 -1.654091e-12
-3.390000e+00 6.445953e-12
-3.380000e+00 1.540810e-11
-3.370000e+00 2.510561e-11
-3.360000e+00 3.537931e-11
-3.350000e+00 4.603828e-11
-3.340000e+00 5.686176e-11
-3.330000e+00 6.760162e-11
-3.320000e+00 7.798603e-11
-3.310000e+00 8.772379e-11
-3.300000e+00 9.650982e-11
-3.290000e+00 1.040314e-10
-3.280000e+00 1.099747e-10
-3.270000e+00 1.140329e-10
-3.260000e+00 1.159136e-10
-3.250000e+00 1.153476e-10
-3.240000e+00 1.120974e-10
-3.230000e+00 1.059653e-10
-3.220000e+00 9.680198e-11
-3.210000e+00 8.451405e-11
-3.200000e+00 6.907149e-11
-3.190000e+00 5.051327e-11
-3.180000e+00 2.895281e-11
-3.170000e+00 4.581661e-12
-3.160000e+00 -2.232829e-11
-3.150000e+00 -5.142438e-11
-3.140000e+00 -8.227420e-11
-3.130000e+00 -1.143688e-10
-3.120000e+00 -1.471281e-10
-3.110000e+00 -1.799075e-10
-3.100000e+00 -2.120073e-10
-3.090000e+00 -2.426836e-10
-3.080000e+00 -2.711610e-10
-3.070000e+00 -2.966475e-10
-3.060000e+00 -3.183492e-10
-3.050000e+00 -3.354889e-10
-3.040000e+00 -3.473215e-10
-3.030000e+00 -3.531552e-10
-3.020000e+00 -3.523673e-10
-3.010000e+00 -3.444245e-10
-3.000000e+00 -3.288980e-10
-2.990000e+00 -3.054832e-10
-2.980000e+00 -2.740112e-10
-2.970000e+00 -2.344638e-10
-2.960000e+00 -1.869835e-10
-2.950000e+00 -1.318816e-10
-2.940000e+00 -6.964298e-11
-2.930000e+00 -9.277485e-13
-2.920000e+00 7.343030e-11
-2.910000e+00 1.524298e-10
-2.900000e+00 2.349102e-10
-2.890000e+00 3.195659e-10
-2.880000e+00 4.049614e-10
-2.870000e+00 4.895536e-10
-2.860000e+00 5.717121e-10
-2.850000e+00 6.497484e-10
-2.840000e+00 7.219439e-10
-2.830000e+00 7.865802e-10
-2.820000e+00 8.419719e-10
-2.810000e+00 8.865004e-10
-2.800000e+00 9.186476e-10
-2.790000e+00 9.370285e-10
-2.780000e+00 9.404238e-10
-2.770000e+00 9.278108e-10
-2.760000e+00 8.983919e-10
-2.750000e+00 8.516184e-10
-2.740000e+00 7.872128e-10
-2.730000e+00 7.051855e-10
-2.720000e+00 6.058483e-10
-2.710000e+00 4.898197e-10
-2.700000e+00 3.580286e-10
-2.690000e+00 2.117097e-10
-2.680000e+00 5.239552e-11
-2.670000e+00 -1.181016e-10
-2.660000e+00 -2.977070e-10
-2.650000e+00 -4.841114e-10
-2.640000e+00 -6.748003e-10
-2.630000e+00 -8.670898e-10
-2.620000e+00 -1.058166e-09
-2.610000e+00 -1.245124e-09
-2.600000e+00 -1.425018e-09
-2.590000e+00 -1.594898e-09
-2.580000e+00 -1.751864e-09
-2.570000e+00 -1.893108e-09
-2.560000e+00 -2.015960e-09
-2.550000e+00 -2.117928e-09
-2.540000e+00 -2.196743e-09
-2.530000e+00 -2.250388e-09
-2.520000e+00 -2.277132e-09
-2.510000e+00 -2.275563e-09
-2.500000e+00 -2.244595e-09
-2.490000e+00 -2.183495e-09
-2.480000e+00 -2.091887e-09
-2.470000e+00 -1.969749e-09
-2.460000e+00 -1.817420e-09
-2.450000e+00 -1.635583e-09
-2.440000e+00 -1.425246e-09
-2.430000e+00 -1.187726e-09
-2.420000e+00 -9.246260e-10
-2.410000e+00 -6.377970e-10
-2.400000e+00 -3.293134e-10
-2.390000e+00 -1.434495e-12
-2.380000e+00 3.434314e-10
-2.370000e+00 7.027562e-10
-2.360000e+00 1.073936e-09
-2.350000e+00 1.454313e-09
-2.340000e+00 1.841212e-09
-2.330000e+00 2.231962e-09
-2.320000e+00 2.623913e-09
-2.310000e+00 3.014455e-09
-2.300000e+00 3.401022e-09
-2.290000e+00 3.781093e-09
-2.280000e+00 4.152186e-09
-2.270000e+00 4.511839e-09
-2.260000e+00 4.857602e-09
-2.250000e+00 5.186992e-09
-2.240000e+00 5.497465e-09
-2.230000e+00 5.786385e-09
-2.220000e+00 6.050958e-09
-2.210000e+00 6.288197e-09
-2.200000e+00 6.494871e-09
-2.190000e+00 6.667427e-09
-2.180000e+00 6.801971e-09
-2.170000e+00 6.894171e-09
-2.160000e+00 6.939247e-09
-2.150000e+00 6.931883e-09
-2.140000e+00 6.866219e-09
-2.130000e+00 6.735769e-09
-2.120000e+00 6.533442e-09
-2.110000e+00 6.251477e-09
-2.100000e+00 5.881457e-09
-2.090000e+00 5.414290e-09
-2.080000e+00 4.840239e-09
-2.070000e+00 4.148905e-09
-2.060000e+00 3.329322e-09
-2.050000e+00 2.369926e-09
-2.040000e+00 1.258651e-09
-2.030000e+00 -1.700640e-11
-2.020000e+00 -1.469917e-09
-2.010000e+00 -3.113234e-09
-2.000000e+00 -4.960332e-09
-1.990000e+00 -7.024646e-09
-1.980000e+00 -9.319623e-09
-1.970000e+00 -1.185861e-08
-1.960000e+00 -1.465470e-08
-1.950000e+00 -1.772065e-08
-1.940000e+00 -2.106882e-08
-1.930000e+00 -2.471099e-08
-1.920000e+00 -2.865832e-08
-1.910000e+00 -3.292122e-08
-1.900000e+00 -3.750922e-08
-1.890000e+00 -4.243106e-08
-1.880000e+00 -4.769440e-08
-1.870000e+00 -5.330594e-08
-1.860000e+00 -5.927124e-08
-1.850000e+00 -6.559490e-08
-1.840000e+00 -7.228015e-08
-1.830000e+00 -7.932933e-08
-1.820000e+00 -8.674351e-08
-1.810000e+00 -9.452270e-08
-1.800000e+00 -1.026659e-07
-1.790000e+00 -1.111709e-07
-1.780000e+00 -1.200346e-07
-1.770000e+00 -1.292533e-07
-1.760000e+00 -1.388218e-07
-1.750000e+00 -1.487348e-07
-1.740000e+00 -1.589859e-07
-1.730000e+00 -1.695685e-07
-1.720000e+00 -1.804752e-07
-1.710000e+00 -1.916985e-07
-1.700000e+00 -2.032303e-07
-1.690000e+00 -2.150629e-07
-1.680000e+00 -2.271884e-07
-1.670000e+00 -2.395986e-07
-1.660000e+00 -2.522861e-07
-1.650000e+00 -2.652433e-07
-1.640000e+00 -2.784636e-07
-1.630000e+00 -2.919404e-07
-1.620000e+00 -3.056682e-07
-1.610000e+00 -3.196420e-07
-1.600000e+00 -3.338575e-07
-1.590000e+00 -3.483118e-07
-1.580000e+00 -3.630026e-07
-1.570000e+00 -3.779291e-07
-1.560000e+00 -3.930913e-07
-1.550000e+00 -4.084909e-07
-1.540000e+00 -4.241305e-07
-1.530000e+00 -4.400145e-07
-1.520000e+00 -4.561487e-07
-1.510000e+00 -4.725397e-07
-1.500000e+00 -4.891970e-07
-1.490000e+00 -5.061308e-07
-1.480000e+00 -5.233529e-07
-1.470000e+00 -5.408774e-07
-1.460000e+00 -5.587193e-07
-1.450000e+00 -5.768959e-07
-1.440000e+00 -5.954258e-07
-1.430000e+00 -6.143294e-07
-1.420000e+00 -6.336293e-07
-1.410000e+00 -6.533490e-07
-1.400000e+00 -6.735137e-07
-1.390000e+00 -6.941506e-07
-1.380000e+00 -7.152885e-07
-1.370000e+00 -7.369568e-07
-1.360000e+00 -7.591869e-07
-1.350000e+00 -7.820121e-07
-1.340000e+00 -8.054656e-07
-1.330000e+00 -8.295831e-07
-1.320000e+00 -8.543997e-07
-1.310000e+00 -8.799531e-07
-1.300000e+00 -9.062813e-07
-1.290000e+00 -9.334219e-07
-1.280000e+00 -9.614146e-07
-1.270000e+00 -9.902980e-07
-1.260000e+00 -1.020113e-06
-1.250000e+00 -1.050898e-06
-1.240000e+00 -1.082694e-06
-1.230000e+00 -1.115541e-06
-1.220000e+00 -1.149479e-06
-1.210000e+00 -1.184546e-06
-1.200000e+00 -1.220782e-06
-1.190000e+00 -1.258226e-06
-1.180000e+00 -1.296915e-06
-1.170000e+00 -1.336888e-06
-1.160000e+00 -1.378181e-06
-1.150000e+00 -1.420830e-06
-1.140000e+00 -1.464870e-06
-1.130000e+00 -1.510336e-06
-1.120000e+00 -1.557262e-06
-1.110000e+00 -1.605682e-06
-1.100000e+00 -1.655626e-06
-1.090000e+00 -1.707128e-06
-1.080000e+00 -1.760219e-06
-1.070000e+00 -1.814931e-06
-1.060000e+00 -1.871292e-06
-1.050000e+00 -1.929333e-06
-1.040000e+00 -1.989085e-06
-1.030000e+00 -2.050579e-06
-1.020000e+00 -2.113843e-06
-1.010000e+00 -2.178909e-06
-1.000000e+00 -2.245807e-06
-9.900002e-01 -2.314570e-06
-9.800000e-01 -2.385230e-06
-9.700003e-01 -2.457821e-06
-9.600000e-01 -2.532379e-06
-9.500003e-01 -2.608939e-06
-9.400001e-01 -2.687540e-06
-9.300003e-01 -2.768220e-06
-9.200001e-01 -2.851023e-06
-9.100003e-01 -2.935991e-06
-9.000001e-01 -3.023173e-06
-8.900003e-01 -3.112615e-06
-8.800001e-01 -3.204372e-06
-8.700004e-01 -3.298494e-06
-8.600001e-01 -3.395041e-06
-8.500004e-01 -3.494071e-06
-8.400002e-01 -3.595650e-06
-8.299999e-01 -3.699843e-06
-8.200002e-01 -3.806719e-06
-8.099999e-01 -3.916350e-06
-8.000002e-01 -4.028812e-06
-7.900000e-01 -4.144189e-06
-7.800002e-01 -4.262559e-06
-7.700000e-01 -4.384007e-06
-7.600002e-01 -4.508624e-06
-7.500000e-01 -4.636498e-06
-7.400002e-01 -4.767726e-06
-7.300000e-01 -4.902405e-06
-7.200003e-01 -5.040632e-06
-7.100000e-01 -5.182511e-06
-7.000003e-01 -5.328147e-06
-6.900001e-01 -5.477645e-06
-6.800003e-01 -5.631111e-06
-6.700001e-01 -5.788659e-06
-6.600003e-01 -5.950397e-06
-6.500001e-01 -6.116441e-06
-6.400003e-01 -6.286906e-06
-6.300001e-01 -6.461901e-06
-6.200004e-01 -6.641548e-06
-6.100001e-01 -6.825965e-06
-6.000004e-01 -7.015262e-06
-5.900002e-01 -7.209571e-06
-5.800004e-01 -7.409001e-06
-5.700002e-01 -7.613681e-06
-5.599999e-01 -7.823721e-06
-5.500002e-01 -8.039255e-06
-5.400000e-01 -8.260400e-06
-5.300002e-01 -8.487280e-06
-5.200000e-01 -8.720029e-06
-5.100002e-01 -8.958761e-06
-5.000000e-01 -9.203612e-06
-4.900002e-01 -9.454715e-06
-4.800000e-01 -9.712198e-06
-4.700003e-01 -9.976197e-06
-4.600000e-01 -1.024685e-05
-4.500003e-01 -1.052431e-05
-4.400001e-01 -1.080870e-05
-4.300003e-01 -1.110017e-05
-4.200001e-01 -1.139889e-05
-4.100003e-01 -1.170500e-05
-4.000001e-01 -1.201866e-05
-3.900003e-01 -1.234004e-05
-3.800001e-01 -1.266931e-05
-3.700004e-01 -1.300663e-05
-3.600001e-01 -1.335220e-05
-3.500004e-01 -1.370619e-05
-3.400002e-01 -1.406879e-05
-3.300004e-01 -1.444019e-05
-3.200002e-01 -1.482061e-05
-3.099999e-01 -1.521024e-05
-3.000002e-01 -1.560930e-05
-2.900000e-01 -1.601799e-05
-2.800002e-01 -1.643655e-05
-2.700000e-01 -1.686519e-05
-2.600002e-01 -1.730415e-05
-2.500000e-01 -1.775368e-05
-2.400002e-01 -1.821399e-05
-2.300000e-01 -1.868536e-05
-2.200003e-01 -1.916801e-05
-2.100000e-01 -1.966220e-05
-2.000003e-01 -2.016820e-05
-1.900001e-01 -2.068626e-05
-1.800003e-01 -2.121665e-05
-1.700001e-01 -2.175962e-05
-1.600003e-01 -2.231546e-05
-1.500001e-01 -2.288444e-05
-1.400003e-01 -2.346683e-05
-1.300001e-01 -2.406292e-05
-1.200004e-01 -2.467297e-05
-1.100001e-01 -2.529729e-05
-1.000004e-01 -2.593616e-05
-9.000015e-02 -2.658986e-05
-8.000040e-02 -2.725870e-05
-7.000017e-02 -2.794297e-05
-5.999994e-02 -2.864297e-05
-5.000019e-02 -2.935901e-05
-3.999996e-02 -3.009139e-05
-3.000021e-02 -3.084046e-05
-1.999998e-02 -3.160651e-05
-1.000023e-02 -3.238985e-05
0.000000e+00 -3.319086e-05
1.000023e-02 -3.400982e-05
1.999950e-02 -3.484710e-05
2.999973e-02 -3.570308e-05
3.999996e-02 -3.657807e-05
5.000019e-02 -3.747244e-05
5.999947e-02 -3.838658e-05
6.999969e-02 -3.932087e-05
7.999992e-02 -4.027569e-05
9.000015e-02 -4.125145e-05
9.999943e-02 -4.224856e-05
1.099997e-01 -4.326741e-05
1.199999e-01 -4.430844e-05
1.300001e-01 -4.537206e-05
1.399994e-01 -4.645880e-05
1.499996e-01 -4.756900e-05
1.599998e-01 -4.870320e-05
1.700001e-01 -4.986183e-05
1.799994e-01 -5.104542e-05
1.899996e-01 -5.225443e-05
1.999998e-01 -5.348938e-05
2.100000e-01 -5.475077e-05
2.200003e-01 -5.603909e-05
2.299995e-01 -5.735495e-05
2.399998e-01 -5.869883e-05
2.500000e-01 -6.007131e-05
2.600002e-01 -6.147292e-05
2.699995e-01 -6.290421e-05
2.799997e-01 -6.436581e-05
2.900000e-01 -6.585829e-05
3.000002e-01 -6.738216e-05
3.099995e-01 -6.893810e-05
3.199997e-01 -7.052666e-05
3.299999e-01 -7.214845e-05
3.400002e-01 -7.380415e-05
3.499994e-01 -7.549427e-05
3.599997e-01 -7.721953e-05
3.699999e-01 -7.898048e-05
3.800001e-01 -8.077784e-05
3.899994e-01 -8.261218e-05
3.999996e-01 -8.448418e-05
4.099998e-01 -8.639447e-05
4.200001e-01 -8.834377e-05
4.299994e-01 -9.033264e-05
4.399996e-01 -9.236181e-05
4.499998e-01 -9.443191e-05
4.600000e-01 -9.654368e-05
4.700003e-01 -9.869773e-05
4.799995e-01 -1.008948e-04
4.899998e-01 -1.031356e-04
5.000000e-01 -1.054208e-04
5.100002e-01 -1.077512e-04
5.199995e-01 -1.101273e-04
5.299997e-01 -1.125501e-04
5.400000e-01 -1.150201e-04
5.500002e-01 -1.175383e-04
5.599995e-01 -1.201052e-04
5.699997e-01 -1.227217e-04
5.799999e-01 -1.253887e-04
5.900002e-01 -1.281067e-04
5.999994e-01 -1.308767e-04
6.099997e-01 -1.336995e-04
6.199999e-01 -1.365759e-04
6.300001e-01 -1.395068e-04
6.399994e-01 -1.424930e-04
6.499996e-01 -1.455354e-04
6.599998e-01 -1.486348e-04
6.700001e-01 -1.517922e-04
6.799994e-01 -1.550086e-04
6.899996e-01 -1.582847e-04
6.999998e-01 -1.616215e-04
7.100000e-01 -1.650202e-04
7.200003e-01 -1.684814e-04
7.299995e-01 -1.720064e-04
7.399998e-01 -1.755959e-04
7.500000e-01 -1.792511e-04
7.600002e-01 -1.829731e-04
7.699995e-01 -1.867627e-04
7.799997e-01 -1.906209e-04
7.900000e-01 -1.945491e-04
8.000002e-01 -1.985480e-04
8.099995e-01 -2.026190e-04
8.199997e-01 -2.067628e-04
8.299999e-01 -2.109807e-04
8.400002e-01 -2.152739e-04
8.499994e-01 -2.196432e-04
8.599997e-01 -2.240899e-04
8.699999e-01 -2.286152e-04
8.800001e-01 -2.332200e-04
8.899994e-01 -2.379055e-04
8.999996e-01 -2.426730e-04
9.099998e-01 -2.475234e-04
9.200001e-01 -2.524579e-04
9.299994e-01 -2.574777e-04
9.399996e-01 -2.625842e-04
9.499998e-01 -2.677781e-04
9.600000e-01 -2.730609e-04
9.700003e-01 -2.784335e-04
9.799995e-01 -2.838974e-04
9.899998e-01 -2.894536e-04
1.000000e+00 -2.951034e-04
1.010000e+00 -3.008479e-04
1.020000e+00 -3.066884e-04
1.030000e+00 -3.126260e-04
1.040000e+00 -3.186622e-04
1.050000e+00 -3.247982e-04
1.059999e+00 -3.310349e-04
1.070000e+00 -3.373738e-04
1.080000e+00 -3.438162e-04
1.090000e+00 -3.503633e-04
1.099999e+00 -3.570165e-04
1.110000e+00 -3.637768e-04
1.120000e+00 -3.706459e-04
1.130000e+00 -3.776249e-04
1.139999e+00 -3.847152e-04
1.150000e+00 -3.919178e-04
1.160000e+00 -3.992344e-04
1.170000e+00 -4.066660e-04
1.179999e+00 -4.142145e-04
1.190000e+00 -4.218808e-04
1.200000e+00 -4.296661e-04
1.210000e+00 -4.375724e-04
1.220000e+00 -4.456003e-04
1.230000e+00 -4.537517e-04
1.240000e+00 -4.620277e-04
1.250000e+00 -4.704297e-04
1.260000e+00 -4.789594e-04
1.270000e+00 -4.876178e-04
1.280000e+00 -4.964063e-04
1.290000e+00 -5.053264e-04
1.300000e+00 -5.143795e-04
1.309999e+00 -5.235671e-04
1.320000e+00 -5.328903e-04
1.330000e+00 -5.423506e-04
1.340000e+00 -5.519495e-04
1.349999e+00 -5.616885e-04
1.360000e+00 -5.715688e-04
1.370000e+00 -5.815918e-04
1.380000e+00 -5.917588e-04
1.389999e+00 -6.020717e-04
1.400000e+00 -6.125316e-04
1.410000e+00 -6.231398e-04
1.420000e+00 -6.338977e-04
1.429999e+00 -6.448071e-04
1.440000e+00 -6.558691e-04
1.450000e+00 -6.670851e-04
1.460000e+00 -6.784567e-04
1.469999e+00 -6.899851e-04
1.480000e+00 -7.016718e-04
1.490000e+00 -7.135184e-04
1.500000e+00 -7.255260e-04
1.510000e+00 -7.376963e-04
1.520000e+00 -7.500303e-04
1.530000e+00 -7.625300e-04
1.540000e+00 -7.751959e-04
1.550000e+00 -7.880302e-04
1.559999e+00 -8.010341e-04
1.570000e+00 -8.142086e-04
1.580000e+00 -8.275553e-04
1.590000e+00 -8.410756e-04
1.599999e+00 -8.547703e-04
1.610000e+00 -8.686412e-04
1.620000e+00 -8.826901e-04
1.630000e+00 -8.969175e-04
1.639999e+00 -9.113248e-04
1.650000e+00 -9.259132e-04
1.660000e+00 -9.406841e-04
1.670000e+00 -9.556388e-04
1.679999e+00 -9.707783e-04
1.690000e+00 -9.861041e-04
1.700000e+00 -1.001617e-03
1.710000e+00 -1.017319e-03
1.719999e+00 -1.033209e-03
1.730000e+00 -1.049292e-03
1.740000e+00 -1.065565e-03
1.750000e+00 -1.082032e-03
1.760000e+00 -1.098693e-03
1.770000e+00 -1.115549e-03
1.780000e+00 -1.132602e-03
1.790000e+00 -1.149850e-03
1.800000e+00 -1.167298e-03
1.809999e+00 -1.184945e-03
1.820000e+00 -1.202792e-03
1.830000e+00 -1.220840e-03
1.840000e+00 -1.239090e-03
1.849999e+00 -1.257544e-03
1.860000e+00 -1.276200e-03
1.870000e+00 -1.295063e-03
1.880000e+00 -1.314130e-03
1.889999e+00 -1.333403e-03
1.900000e+00 -1.352884e-03
1.910000e+00 -1.372574e-03
1.920000e+00 -1.392471e-03
1.929999e+00 -1.412578e-03
1.940000e+00 -1.432895e-03
1.950000e+00 -1.453423e-03
1.960000e+00 -1.474163e-03
1.969999e+00 -1.495114e-03
1.980000e+00 -1.516278e-03
1.990000e+00 -1.537654e-03
2.000000e+00 -1.559244e-03
2.010000e+00 -1.581048e-03
2.020000e+00 -1.603067e-03
2.030000e+00 -1.625300e-03
2.040000e+00 -1.647748e-03
2.050000e+00 -1.670412e-03
2.059999e+00 -1.693291e-03
2.070000e+00 -1.716386e-03
2.080000e+00 -1.739697e-03
2.090000e+00 -1.763224e-03
2.099999e+00 -1.786969e-03
2.110000e+00 -1.810929e-03
2.120000e+00 -1.835105e-03
2.130000e+00 -1.859498e-03
2.139999e+00 -1.884106e-03
2.150000e+00 -1.908932e-03
2.160000e+00 -1.933972e-03
2.170000e+00 -1.959230e-03
2.179999e+00 -1.984702e-03
2.190000e+00 -2.010390e-03
2.200000e+00 -2.036292e-03
2.210000e+00 -2.062410e-03
2.219999e+00 -2.088741e-03
2.230000e+00 -2.115286e-03
2.240000e+00 -2.142043e-03
2.250000e+00 -2.169014e-03
2.260000e+00 -2.196195e-03
2.270000e+00 -2.223588e-03
2.280000e+00 -2.251191e-03
2.290000e+00 -2.279004e-03
2.300000e+00 -2.307025e-03
2.309999e+00 -2.335253e-03
2.320000e+00 -2.363689e-03
2.330000e+00 -2.392329e-03
2.340000e+00 -2.421173e-03
2.349999e+00 -2.450221e-03
2.360000e+00 -2.479472e-03
2.370000e+00 -2.508922e-03
2.380000e+00 -2.538573e-03
2.389999e+00 -2.568421e-03
2.400000e+00 -2.598464e-03
2.410000e+00 -2.628704e-03
2.420000e+00 -2.659136e-03
2.429999e+00 -2.689759e-03
2.440000e+00 -2.720573e-03
2.450000e+00 -2.751574e-03
2.460000e+00 -2.782761e-03
2.469999e+00 -2.814133e-03
2.480000e+00 -2.845687e-03
2.490000e+00 -2.877421e-03
2.500000e+00 -2.909333e-03
2.510000e+00 -2.941419e-03
2.520000e+00 -2.973681e-03
2.530000e+00 -3.006112e-03
2.540000e+00 -3.038713e-03
2.550000e+00 -3.071479e-03
2.559999e+00 -3.104409e-03
2.570000e+00 -3.137500e-03
2.580000e+00 -3.170749e-03
2.590000e+00 -3.204155e-03
2.599999e+00 -3.237712e-03
2.610000e+00 -3.271419e-03
2.620000e+00 -3.305272e-03
2.630000e+00 -3.339269e-03
2.639999e+00 -3.373407e-03
2.650000e+00 -3.407681e-03
2.660000e+00 -3.442091e-03
2.670000e+00 -3.476629e-03
2.679999e+00 -3.511296e-03
2.690000e+00 -3.546086e-03
2.700000e+00 -3.580996e-03
2.710000e+00 -3.616021e-03
2.719999e+00 -3.651160e-03
2.730000e+00 -3.686407e-03
2.740000e+00 -3.721758e-03
2.750000e+00 -3.757211e-03
2.760000e+00 -3.792759e-03
2.770000e+00 -3.828400e-03
2.780000e+00 -3.864130e-03
2.790000e+00 -3.899943e-03
2.800000e+00 -3.935834e-03
2.809999e+00 -3.971802e-03
2.820000e+00 -4.007838e-03
2.830000e+00 -4.043943e-03
2.840000e+00 -4.080106e-03
2.849999e+00 -4.116328e-03
2.860000e+00 -4.152600e-03
2.870000e+00 -4.188918e-03
2.880000e+00 -4.225280e-03
2.889999e+00 -4.261674e-03
2.900000e+00 -4.298102e-03
2.910000e+00 -4.334555e-03