-8.000000e+00 0.000000e+00
-7.950000e+00 0.000000e+00
-7.900000e+00 0.000000e+00
-7.850000e+00 0.000000e+00
-7.800000e+00 -3.233915e-15
-7.750000e+00 -1.381950e-14
-7.700000e+00 -1.845389e-14
-7.650000e+00 2.212449e-14
-7.600000e+00 1.192975e-13
-7.550000e+00 1.586956e-13
-7.500000e+00 -8.194302e-14
-7.450000e+00 -6.436307e-13
-7.400000e+00 -9.988451e-13
-7.350000e+00 -1.594170e-13
-7.300000e+00 2.261140e-12
-7.250000e+00 4.628273e-12
-7.200000e+00 3.330912e-12
-7.150000e+00 -4.206412e-12
-7.100000e+00 -1.483775e-11
-7.050000e+00 -1.812897e-11
-7.000000e+00 -2.760701e-12
-6.950000e+00 3.038619e-11
-6.900000e+00 5.896135e-11
-6.850000e+00 4.746615e-11
-6.800000e+00 -2.351834e-11
-6.750000e+00 -1.248677e-10
-6.700000e+00 -1.756189e-10
-6.650000e+00 -9.046548e-11
-6.600000e+00 1.392016e-10
-6.550000e+00 3.903072e-10
-6.500000e+00 4.452398e-10
-6.450000e+00 1.354317e-10
-6.400000e+00 -4.825688e-10
-6.350000e+00 -1.054861e-09
-6.300000e+00 -1.071953e-09
-6.250000e+00 -2.081672e-10
-6.200000e+00 1.321599e-09
-6.150000e+00 2.658528e-09
-6.100000e+00 2.644829e-09
-6.050000e+00 5.626013e-10
-6.000000e+00 -3.101790e-09
-5.950000e+00 -6.421319e-09
-5.900000e+00 -6.743242e-09
-5.850000e+00 -2.281748e-09
-5.800000e+00 6.162569e-09
-5.750000e+00 1.455136e-08
-5.700000e+00 1.698476e-08
-5.650000e+00 9.005864e-09
-5.600000e+00 -8.717040e-09
-5.550000e+00 -2.878434e-08
-5.500000e+00 -3.942984e-08
-5.450000e+00 -3.059333e-08
-5.400000e+00 -7.480796e-10
-5.350000e+00 3.984620e-08
-5.300000e+00 7.244978e-08
-5.250000e+00 7.890608e-08
-5.200000e+00 5.163100e-08
-5.150000e+00 -1.696279e-09
-5.100000e+00 -6.226735e-08
-5.050000e+00 -1.111733e-07
-5.000000e+00 -1.407438e-07
-4.950000e+00 -1.591281e-07
-4.900000e+00 -1.853519e-07
-4.850000e+00 -2.383131e-07
-4.800000e+00 -3.269708e-07
-4.750000e+00 -4.476690e-07
-4.700000e+00 -5.892190e-07
-4.650000e+00 -7.410973e-07
-4.600000e+00 -8.987189e-07
-4.550000e+00 -1.062942e-06
-4.500000e+00 -1.235868e-06
-4.450000e+00 -1.417696e-06
-4.400000e+00 -1.607950e-06
-4.350000e+00 -1.810425e-06
-4.300000e+00 -2.037995e-06
-4.250000e+00 -2.313440e-06
-4.200000e+00 -2.665144e-06
-4.150000e+00 -3.119528e-06
-4.100000e+00 -3.693340e-06
-4.050000e+00 -4.388366e-06
-4.000000e+00 -5.190159e-06
-3.950000e+00 -6.072022e-06
-3.900000e+00 -7.005030e-06
-3.850000e+00 -7.973164e-06
-3.800000e+00 -8.989087e-06
-3.750000e+00 -1.010315e-05
-3.700000e+00 -1.139869e-05
-3.650000e+00 -1.297170e-05
-3.600000e+00 -1.490143e-05
-3.550000e+00 -1.722414e-05
-3.500000e+00 -1.992331e-05
-3.450000e+00 -2.294320e-05
-3.400000e+00 -2.622224e-05
-3.350000e+00 -2.973359e-05
-3.300000e+00 -3.351556e-05
-3.250000e+00 -3.767727e-05
-3.200000e+00 -4.237480e-05
-3.150000e+00 -4.776642e-05
-3.100000e+00 -5.396658e-05
-3.050000e+00 -6.102150e-05
-3.000000e+00 -6.892082e-05
-2.950000e+00 -7.764086e-05
-2.900000e+00 -8.719768e-05
-2.850000e+00 -9.768104e-05
-2.800000e+00 -1.092506e-04
-2.750000e+00 -1.220983e-04
-2.700000e+00 -1.364005e-04
-2.650000e+00 -1.522896e-04
-2.600000e+00 -1.698586e-04
-2.550000e+00 -1.891930e-04
-2.500000e+00 -2.104057e-04
-2.450000e+00 -2.336537e-04
-2.400000e+00 -2.591292e-04
-2.350000e+00 -2.870394e-04
-2.300000e+00 -3.175854e-04
-2.250000e+00 -3.509576e-04
-2.200000e+00 -3.873411e-04
-2.150000e+00 -4.269234e-04
-2.100000e+00 -4.699009e-04
-2.050000e+00 -5.164783e-04
-2.000000e+00 -5.668701e-04
-1.950000e+00 -6.213019e-04
-1.900000e+00 -6.800118e-04
-1.850000e+00 -7.432463e-04
-1.800000e+00 -8.112569e-04
-1.750000e+00 -8.842938e-04
-1.700000e+00 -9.626065e-04
-1.650000e+00 -1.046444e-03
-1.600000e+00 -1.136055e-03
-1.550000e+00 -1.231683e-03
-1.500000e+00 -1.333557e-03
-1.450000e+00 -1.441885e-03
-1.400000e+00 -1.556865e-03
-1.350000e+00 -1.678687e-03
-1.300000e+00 -1.807537e-03
-1.250000e+00 -1.943599e-03
-1.200000e+00 -2.087031e-03
-1.150000e+00 -2.237964e-03
-1.100000e+00 -2.396495e-03
-1.050000e+00 -2.562694e-03
-1.000000e+00 -2.736612e-03
-9.499998e-01 -2.918271e-03
-9.000001e-01 -3.107658e-03
-8.499999e-01 -3.304710e-03
-7.999997e-01 -3.509323e-03
-7.500000e-01 -3.721364e-03
-6.999998e-01 -3.940674e-03
-6.500001e-01 -4.167065e-03
-5.999999e-01 -4.400307e-03
-5.499997e-01 -4.640111e-03
-5.000000e-01 -4.886131e-03
-4.499998e-01 -5.137985e-03
-4.000001e-01 -5.395271e-03
-3.499999e-01 -5.657569e-03
-2.999997e-01 -5.924421e-03
-2.500000e-01 -6.195326e-03
-1.999998e-01 -6.469736e-03
-1.500001e-01 -6.747082e-03
-9.999990e-02 -7.026796e-03
-4.999971e-02 -7.308329e-03
0.000000e+00 -7.591130e-03
5.000019e-02 -7.874638e-03
1.000004e-01 -8.158259e-03
1.500006e-01 -8.441406e-03
1.999998e-01 -8.723523e-03
2.500000e-01 -9.004128e-03
3.000002e-01 -9.282793e-03
3.500004e-01 -9.559148e-03
4.000006e-01 -9.832857e-03
4.499998e-01 -1.010366e-02
5.000000e-01 -1.037135e-02
5.500002e-01 -1.063587e-02
6.000004e-01 -1.089726e-02
6.500006e-01 -1.115568e-02
6.999998e-01 -1.141137e-02
7.500000e-01 -1.166468e-02
8.000002e-01 -1.191603e-02
8.500004e-01 -1.216603e-02
9.000006e-01 -1.241541e-02
9.499998e-01 -1.266507e-02
1.000000e+00 -1.291605e-02
1.050000e+00 -1.316950e-02
1.100000e+00 -1.342669e-02
1.150001e+00 -1.368902e-02
1.200000e+00 -1.395804e-02
1.250000e+00 -1.423539e-02
1.300000e+00 -1.452280e-02
1.350000e+00 -1.482207e-02
1.400001e+00 -1.513501e-02
1.450000e+00 -1.546344e-02
1.500000e+00 -1.580920e-02
1.550000e+00 -1.617411e-02
1.600000e+00 -1.655996e-02
1.650001e+00 -1.696848e-02
1.700000e+00 -1.740131e-02
1.750000e+00 -1.785996e-02
1.800000e+00 -1.834574e-02
1.850000e+00 -1.885976e-02
1.900001e+00 -1.940283e-02
1.950000e+00 -1.997552e-02
2.000000e+00 -2.057798e-02
2.050000e+00 -2.121006e-02
2.100000e+00 -2.187120e-02
2.150001e+00 -2.256037e-02
2.200000e+00 -2.327609e-02
2.250000e+00 -2.401634e-02
2.300000e+00 -2.477861e-02
2.350000e+00 -2.555985e-02
2.400001e+00 -2.635645e-02
2.450000e+00 -2.716421e-02
2.500000e+00 -2.797831e-02
2.550000e+00 -2.879333e-02
2.600000e+00 -2.960321e-02
2.650001e+00 -3.040131e-02
2.700000e+00 -3.118046e-02
2.750000e+00 -3.193290e-02
2.800000e+00 -3.265032e-02
2.850000e+00 -3.332388e-02
2.900001e+00 -3.394433e-02
2.950000e+00 -3.450195e-02
3.000000e+00 -3.498672e-02
3.050000e+00 -3.538834e-02
3.100000e+00 -3.569631e-02
3.150001e+00 -3.589997e-02
3.200000e+00 -3.598858e-02
3.250000e+00 -3.595149e-02
3.300000e+00 -3.577820e-02
3.350000e+00 -3.545847e-02
3.400001e+00 -3.498236e-02
3.450000e+00 -3.434036e-02
3.500000e+00 -3.352348e-02
3.550000e+00 -3.252330e-02
3.600000e+00 -3.133222e-02
3.650001e+00 -2.994350e-02
3.700000e+00 -2.835143e-02
3.750000e+00 -2.655130e-02
3.800000e+00 -2.453958e-02
3.850000e+00 -2.231395e-02
3.900001e+00 -1.987343e-02
3.950000e+00 -1.721839e-02
4.000000e+00 -1.435075e-02
4.050000e+00 -1.127385e-02
4.100000e+00 -7.992620e-03
4.150001e+00 -4.513500e-03
4.200000e+00 -8.444648e-04
4.250000e+00 3.004926e-03
4.300000e+00 7.023526e-03
4.350000e+00 1.119861e-02
4.400001e+00 1.551592e-02
4.450000e+00 1.995977e-02
4.500000e+00 2.451311e-02
4.550000e+00 2.915760e-02
4.600000e+00 3.387376e-02
4.650001e+00 3.864100e-02
4.700000e+00 4.343772e-02
4.750000e+00 4.824148e-02
4.800000e+00 5.302921e-02
4.850000e+00 5.777721e-02
4.900001e+00 6.246154e-02
4.950000e+00 6.705795e-02
5.000000e+00 7.154224e-02
5.050000e+00 7.589022e-02
5.100000e+00 8.007815e-02
5.150001e+00 8.408266e-02
5.200000e+00 8.788119e-02
5.250000e+00 9.145196e-02
5.300000e+00 9.477425e-02
5.350000e+00 9.782847e-02
5.400001e+00 1.005963e-01
5.450000e+00 1.030609e-01
5.500000e+00 1.052070e-01
5.550000e+00 1.070212e-01
5.600000e+00 1.084917e-01
5.650001e+00 1.096090e-01
5.700000e+00 1.103651e-01
5.750000e+00 1.107545e-01
5.800000e+00 1.107737e-01
5.850000e+00 1.104213e-01
5.900001e+00 1.096981e-01
5.950000e+00 1.086070e-01
6.000000e+00 1.071531e-01
6.050000e+00 1.053434e-01
6.100000e+00 1.031870e-01
6.150001e+00 1.006950e-01
6.200000e+00 9.788036e-02
6.250000e+00 9.475765e-02
6.300000e+00 9.134340e-02
6.350000e+00 8.765528e-02
6.400001e+00 8.371267e-02
6.450000e+00 7.953598e-02
6.500000e+00 7.514676e-02
6.550000e+00 7.056751e-02
6.600000e+00 6.582145e-02
6.650001e+00 6.093239e-02
6.700000e+00 5.592457e-02
6.750000e+00 5.082238e-02
6.800000e+00 4.565034e-02
6.850000e+00 4.043280e-02
6.900001e+00 3.519389e-02
6.950000e+00 2.995734e-02
7.000000e+00 2.474628e-02
7.050000e+00 1.958308e-02
7.100000e+00 1.448930e-02
7.150001e+00 9.485552e-03
7.200000e+00 4.591376e-03
7.250000e+00 -1.748253e-04
7.300000e+00 -4.795892e-03
7.350000e+00 -9.256017e-03
7.400001e+00 -1.354079e-02
7.450000e+00 -1.763730e-02
7.500000e+00 -2.153413e-02
7.550000e+00 -2.522136e-02
7.600000e+00 -2.869060e-02
7.650001e+00 -3.193498e-02
7.700000e+00 -3.494910e-02
7.750000e+00 -3.772909e-02
7.800000e+00 -4.027246e-02
7.850000e+00 -4.257816e-02
7.900001e+00 -4.464642e-02
7.950000e+00 -4.647881e-02
8.000000e+00 -4.807804e-02
8.050001e+00 -4.944801e-02
8.100000e+00 -5.059367e-02
8.150000e+00 -5.152097e-02
8.200001e+00 -5.223679e-02
8.250000e+00 -5.274877e-02
8.300001e+00 -5.306529e-02
8.350000e+00 -5.319536e-02
8.400000e+00 -5.314845e-02
8.450001e+00 -5.293454e-02
8.500000e+00 -5.256389e-02
8.550001e+00 -5.204711e-02
8.600000e+00 -5.139492e-02
8.650000e+00 -5.061817e-02
8.700001e+00 -4.972766e-02
8.750000e+00 -4.873414e-02
8.800001e+00 -4.764829e-02
8.850000e+00 -4.648057e-02
8.900000e+00 -4.524124e-02
8.950001e+00 -4.394028e-02
9.000000e+00 -4.258735e-02
9.050001e+00 -4.119168e-02
9.100000e+00 -3.976220e-02
9.150000e+00 -3.830735e-02
9.200001e+00 -3.683516e-02
9.250000e+00 -3.535314e-02
9.300001e+00 -3.386829e-02
9.350000e+00 -3.238712e-02
9.400000e+00 -3.091561e-02
9.450001e+00 -2.945925e-02
9.500000e+00 -2.802300e-02
9.550001e+00 -2.661138e-02
9.600000e+00 -2.522838e-02
9.650000e+00 -2.387754e-02
9.700001e+00 -2.256195e-02
9.750000e+00 -2.128428e-02
9.800001e+00 -2.004679e-02
9.850000e+00 -1.885133e-02
9.900000e+00 -1.769937e-02
9.950001e+00 -1.659203e-02
1.000000e+01 -1.553007e-02
1.005000e+01 -1.451395e-02
1.010000e+01 -1.354386e-02
1.015000e+01 -1.261971e-02
1.020000e+01 -1.174119e-02
1.025000e+01 -1.090778e-02
1.030000e+01 -1.011876e-02
1.035000e+01 -9.373262e-03
1.040000e+01 -8.670254e-03
1.045000e+01 -8.008591e-03
1.050000e+01 -7.386999e-03
1.055000e+01 -6.804128e-03
1.060000e+01 -6.258567e-03
1.065000e+01 -5.748866e-03
1.070000e+01 -5.273547e-03
1.075000e+01 -4.831102e-03
1.080000e+01 -4.419985e-03
1.085000e+01 -4.038629e-03
1.090000e+01 -3.685469e-03
1.095000e+01 -3.358970e-03
1.100000e+01 -3.057622e-03
1.105000e+01 -2.779949e-03
1.110000e+01 -2.524498e-03
1.115000e+01 -2.289841e-03
1.120000e+01 -2.074596e-03
1.125000e+01 -1.877445e-03
1.130000e+01 -1.697150e-03
1.135000e+01 -1.532540e-03
1.140000e+01 -1.382496e-03
1.145000e+01 -1.245937e-03
1.150000e+01 -1.121813e-03
1.155000e+01 -1.009123e-03
1.160000e+01 -9.069255e-04
1.165000e+01 -8.143528e-04
1.170000e+01 -7.306029e-04
1.175000e+01 -6.549268e-04
1.180000e+01 -5.866166e-04
1.185000e+01 -5.250002e-04
1.190000e+01 -4.694494e-04
1.195000e+01 -4.193867e-04
1.200000e+01 -3.742882e-04
1.205000e+01 -3.336779e-04
1.210000e+01 -2.971165e-04
1.215000e+01 -2.641946e-04
1.220000e+01 -2.345334e-04
1.225000e+01 -2.077914e-04
1.230000e+01 -1.836738e-04
1.235000e+01 -1.619300e-04
1.240000e+01 -1.423441e-04
1.245000e+01 -1.247164e-04
1.250000e+01 -1.088499e-04
1.255000e+01 -9.454823e-05
1.260000e+01 -8.162397e-05
1.265000e+01 -6.991180e-05
1.270000e+01 -5.927614e-05
1.275000e+01 -4.960830e-05
1.280000e+01 -4.081764e-05
1.285000e+01 -3.282444e-05
1.290000e+01 -2.555987e-05
1.295000e+01 -1.897138e-05
1.300000e+01 -1.302594e-05
1.305000e+01 -7.704128e-06
1.310000e+01 -2.986493e-06
1.315000e+01 1.159607e-06
1.320000e+01 4.782915e-06
1.325000e+01 7.938161e-06
1.330000e+01 1.066984e-05
1.335000e+01 1.300170e-05
1.340000e+01 1.493939e-05
1.345000e+01 1.648433e-05
1.350000e+01 1.764816e-05
1.355000e+01 1.845762e-05
1.360000e+01 1.894705e-05
1.365000e+01 1.914514e-05
1.370000e+01 1.906618e-05
1.375000e+01 1.871213e-05
1.380000e+01 1.808286e-05
1.385000e+01 1.718633e-05
1.390000e+01 1.604097e-05
1.395000e+01 1.466982e-05
1.400000e+01 1.309227e-05
1.405000e+01 1.132167e-05
1.410000e+01 9.371637e-06
1.415000e+01 7.266746e-06
1.420000e+01 5.049107e-06
1.425000e+01 2.774349e-06
1.430000e+01 4.979701e-07
1.435000e+01 -1.740148e-06
1.440000e+01 -3.923710e-06
1.445000e+01 -6.056026e-06
1.450000e+01 -8.147342e-06
1.455000e+01 -1.020171e-05
1.460000e+01 -1.221072e-05
1.465000e+01 -1.415535e-05
1.470000e+01 -1.601169e-05
1.475000e+01 -1.775438e-05
1.480000e+01 -1.935552e-05
1.485000e+01 -2.078187e-05
1.490000e+01 -2.199569e-05
1.495000e+01 -2.296174e-05
1.500000e+01 -2.365751e-05
1.505000e+01 -2.408022e-05
1.510000e+01 -2.424500e-05
1.515000e+01 -2.417501e-05
1.520000e+01 -2.388932e-05
1.525000e+01 -2.339625e-05
1.530000e+01 -2.269565e-05
1.535000e+01 -2.178717e-05
1.540000e+01 -2.067765e-05
1.545000e+01 -1.938196e-05
1.550000e+01 -1.791716e-05
1.555000e+01 -1.629490e-05
1.560000e+01 -1.451866e-05
1.565000e+01 -1.258823e-05
1.570000e+01 -1.050838e-05
1.575000e+01 -8.295159e-06
1.580000e+01 -5.975073e-06
1.585000e+01 -3.577867e-06
1.590000e+01 -1.129114e-06
1.595000e+01 1.350870e-06
1.600000e+01 3.840169e-06
1.605000e+01 6.305795e-06
1.610000e+01 8.700344e-06
1.615000e+01 1.097009e-05
1.620000e+01 1.307141e-05
1.625000e+01 1.498540e-05
1.630000e+01 1.672023e-05
1.635000e+01 1.829908e-05
1.640000e+01 1.974095e-05
1.645000e+01 2.104710e-05
1.650000e+01 2.220063e-05
1.655000e+01 2.317697e-05
1.660000e+01 2.395474e-05
1.665000e+01 2.451796e-05
1.670000e+01 2.484947e-05
1.675000e+01 2.492431e-05
1.680000e+01 2.471308e-05
1.685000e+01 2.419612e-05
1.690000e+01 2.337942e-05
1.695000e+01 2.229898e-05
1.700000e+01 2.100829e-05
1.705000e+01 1.955627e-05
1.710000e+01 1.797044e-05
1.715000e+01 1.625632e-05
1.720000e+01 1.441101e-05
1.725000e+01 1.243875e-05
1.730000e+01 1.035623e-05
1.735000e+01 8.185085e-06
1.740000e+01 5.940774e-06
1.745000e+01 3.629352e-06
1.750000e+01 1.256006e-06
1.755000e+01 -1.162060e-06
1.760000e+01 -3.590265e-06
1.765000e+01 -5.984641e-06
1.770000e+01 -8.307551e-06
1.775000e+01 -1.053870e-05
1.780000e+01 -1.267255e-05
1.785000e+01 -1.470425e-05
1.790000e+01 -1.661533e-05
1.795000e+01 -1.837051e-05
1.800000e+01 -1.992810e-05
1.805000e+01 -2.125643e-05
1.810000e+01 -2.234437e-05
1.815000e+01 -2.319985e-05
1.820000e+01 -2.383880e-05
1.825000e+01 -2.427341e-05
1.830000e+01 -2.450712e-05
1.835000e+01 -2.453735e-05
1.840000e+01 -2.436136e-05
1.845000e+01 -2.397866e-05
1.850000e+01 -2.338855e-05
1.855000e+01 -2.258549e-05
1.860000e+01 -2.155825e-05
1.865000e+01 -2.029547e-05
1.870000e+01 -1.879573e-05
1.875000e+01 -1.707558e-05
1.880000e+01 -1.516991e-05
1.885000e+01 -1.312325e-05
1.890000e+01 -1.097653e-05
1.895000e+01 -8.757273e-06
1.900000e+01 -6.478601e-06
1.905000e+01 -4.146904e-06
1.910000e+01 -1.772010e-06
1.915000e+01 6.273962e-07
1.920000e+01 3.026152e-06
1.925000e+01 5.399362e-06
1.930000e+01 7.726760e-06
1.935000e+01 9.990422e-06
1.940000e+01 1.216813e-05
1.945000e+01 1.422946e-05
1.950000e+01 1.614016e-05
1.955000e+01 1.787322e-05
1.960000e+01 1.941861e-05
1.965000e+01 2.078296e-05
1.970000e+01 2.197764e-05
1.975000e+01 2.300316e-05
1.980000e+01 2.384086e-05
1.985000e+01 2.445832e-05
1.990000e+01 2.482418e-05
1.995000e+01 2.492184e-05
2.000000e+01 2.475278e-05
2.005000e+01 2.432937e-05
2.010000e+01 2.366485e-05
2.015000e+01 2.276934e-05
2.020000e+01 2.165398e-05
2.025000e+01 2.033748e-05
2.030000e+01 1.884727e-05
2.035000e+01 1.721211e-05
2.040000e+01 1.545145e-05
2.045000e+01 1.357009e-05
2.050000e+01 1.156324e-05
2.055000e+01 9.429091e-06
2.060000e+01 7.180242e-06
2.065000e+01 4.846373e-06
2.070000e+01 2.466795e-06
2.075000e+01 7.856376e-08
2.080000e+01 -2.292069e-06
2.085000e+01 -4.630291e-06
2.090000e+01 -6.926645e-06
2.095000e+01 -9.169339e-06
2.100000e+01 -1.133990e-05
2.105000e+01 -1.341393e-05
2.110000e+01 -1.536494e-05
2.115000e+01 -1.716807e-05
2.120000e+01 -1.880108e-05
2.125000e+01 -2.024336e-05
2.130000e+01 -2.147511e-05
2.135000e+01 -2.247947e-05
2.140000e+01 -2.324755e-05
2.145000e+01 -2.378322e-05
2.150000e+01 -2.410326e-05
2.155000e+01 -2.423031e-05
2.160000e+01 -2.418119e-05
2.165000e+01 -2.395705e-05
2.170000e+01 -2.354212e-05
2.175000e+01 -2.291240e-05
2.180000e+01 -2.204921e-05
2.185000e+01 -2.094852e-05
2.190000e+01 -1.962094e-05
2.195000e+01 -1.808414e-05
2.200000e+01 -1.635563e-05
2.205000e+01 -1.445262e-05
2.210000e+01 -1.239869e-05
2.215000e+01 -1.022964e-05
2.220000e+01 -7.990533e-06
2.225000e+01 -5.723175e-06
2.230000e+01 -3.452098e-06
2.235000e+01 -1.180156e-06
2.240000e+01 1.101531e-06
2.245000e+01 3.395578e-06
2.250000e+01 5.685070e-06
2.255000e+01 7.934426e-06
2.260000e+01 1.010302e-05
2.265000e+01 1.216060e-05
2.270000e+01 1.409314e-05
2.275000e+01 1.589583e-05
2.280000e+01 1.756045e-05
2.285000e+01 1.906775e-05
2.290000e+01 2.039058e-05
2.295000e+01 2.150378e-05
2.300000e+01 2.239204e-05
2.305000e+01 2.304913e-05
2.310000e+01 2.346990e-05
2.315000e+01 2.364298e-05
2.320000e+01 2.355098e-05
2.325000e+01 2.317921e-05
2.330000e+01 2.252646e-05
2.335000e+01 2.160971e-05
2.340000e+01 2.045852e-05
2.345000e+01 1.910233e-05
2.350000e+01 1.755809e-05
2.355000e+01 1.582554e-05
2.360000e+01 1.389213e-05
2.365000e+01 1.174361e-05
2.370000e+01 9.373913e-06
2.375000e+01 6.788830e-06
2.380000e+01 4.002857e-06
2.385000e+01 1.032962e-06
2.390000e+01 -2.105529e-06
2.395000e+01 -5.398191e-06
2.400000e+01 -8.827721e-06
2.405000e+01 -1.237212e-05
2.410000e+01 -1.600880e-05
2.415000e+01 -1.972389e-05
2.420000e+01 -2.352058e-05
2.425000e+01 -2.741975e-05
2.430000e+01 -3.145035e-05
2.435000e+01 -3.563490e-05
2.440000e+01 -3.997972e-05
2.445000e+01 -4.447714e-05
2.450000e+01 -4.911865e-05
2.455000e+01 -5.391001e-05
2.460000e+01 -5.887801e-05
2.465000e+01 -6.406520e-05
2.470000e+01 -6.951742e-05
2.475000e+01 -7.527482e-05
2.480000e+01 -8.137237e-05
2.485000e+01 -8.784866e-05
2.490000e+01 -9.475433e-05
2.495000e+01 -1.021529e-04
2.500000e+01 -1.101128e-04
2.505000e+01 -1.186990e-04
2.510000e+01 -1.279700e-04
2.515000e+01 -1.379860e-04
2.520000e+01 -1.488192e-04
2.525000e+01 -1.605609e-04
2.530000e+01 -1.733175e-04
2.535000e+01 -1.871983e-04
2.540000e+01 -2.023043e-04
2.545000e+01 -2.187232e-04
2.550000e+01 -2.365359e-04
2.555000e+01 -2.558269e-04
2.560000e+01 -2.766915e-04
2.565000e+01 -2.992372e-04
2.570000e+01 -3.235771e-04
2.575000e+01 -3.498210e-04
2.580000e+01 -3.780722e-04
2.585000e+01 -4.084260e-04
2.590000e+01 -4.409739e-04
2.595000e+01 -4.758033e-04
2.600000e+01 -5.129948e-04
2.605000e+01 -5.526161e-04
2.610000e+01 -5.947194e-04
2.615000e+01 -6.393416e-04
2.620000e+01 -6.865130e-04
2.625000e+01 -7.362638e-04
2.630000e+01 -7.886244e-04
2.635000e+01 -8.436210e-04
2.640000e+01 -9.012605e-04
2.645000e+01 -9.615205e-04
2.650000e+01 -1.024346e-03
2.655000e+01 -1.089653e-03
2.660000e+01 -1.157340e-03
2.665000e+01 -1.227295e-03
2.670000e+01 -1.299382e-03
2.675000e+01 -1.373446e-03
2.680000e+01 -1.449300e-03
2.685000e+01 -1.526725e-03
2.690000e+01 -1.605488e-03
2.695000e+01 -1.685336e-03
2.700000e+01 -1.766005e-03
2.705000e+01 -1.847206e-03
2.710000e+01 -1.928612e-03
2.715000e+01 -2.009855e-03
2.720000e+01 -2.090530e-03
2.725000e+01 -2.170209e-03
2.730000e+01 -2.248458e-03
2.735000e+01 -2.324836e-03
2.740000e+01 -2.398891e-03
2.745000e+01 -2.470148e-03
2.750000e+01 -2.538102e-03
2.755000e+01 -2.602226e-03
2.760000e+01 -2.661978e-03
2.765000e+01 -2.716817e-03
2.770000e+01 -2.766206e-03
2.775000e+01 -2.809609e-03
2.780000e+01 -2.846489e-03
2.785000e+01 -2.876310e-03
2.790000e+01 -2.898542e-03
2.795000e+01 -2.912681e-03
2.800000e+01 -2.918246e-03
2.805000e+01 -2.914787e-03
2.810000e+01 -2.901874e-03
2.815000e+01 -2.879100e-03
2.820000e+01 -2.846081e-03
2.825000e+01 -2.802463e-03
2.830000e+01 -2.747940e-03
2.835000e+01 -2.682260e-03
2.840000e+01 -2.605230e-03
2.845000e+01 -2.516719e-03
2.850000e+01 -2.416653e-03
2.855000e+01 -2.305018e-03
2.860000e+01 -2.181866e-03
2.865000e+01 -2.047314e-03
2.870000e+01 -1.901542e-03
2.875000e+01 -1.744798e-03
2.880000e+01 -1.577394e-03
2.885000e+01 -1.399711e-03
2.890000e+01 -1.212203e-03
2.895000e+01 -1.015401e-03
2.900000e+01 -8.099100e-04
2.905000e+01 -5.964015e-04
2.910000e+01 -3.756091e-04
2.915000e+01 -1.483189e-04
2.920000e+01 8.463042e-05
2.925000e+01 3.223469e-04
2.930000e+01 5.638872e-04
2.935000e+01 8.082612e-04
2.940000e+01 1.054440e-03
2.945000e+01 1.301363e-03
