-8.000000e+00 0.000000e+00
-7.990000e+00 0.000000e+00
-7.980000e+00 0.000000e+00
-7.970000e+00 0.000000e+00
-7.960000e+00 0.000000e+00
-7.950000e+00 0.000000e+00
-7.940000e+00 0.000000e+00
-7.930000e+00 0.000000e+00
-7.920000e+00 0.000000e+00
-7.910000e+00 0.000000e+00
-7.900000e+00 0.000000e+00
-7.890000e+00 0.000000e+00
-7.880000e+00 0.000000e+00
-7.870000e+00 0.000000e+00
-7.860000e+00 0.000000e+00
-7.850000e+00 0.000000e+00
-7.840000e+00 0.000000e+00
-7.830000e+00 0.000000e+00
-7.820000e+00 0.000000e+00
-7.810000e+00 0.000000e+00
-7.800000e+00 0.000000e+00
-7.790000e+00 0.000000e+00
-7.780000e+00 0.000000e+00
-7.770000e+00 0.000000e+00
-7.760000e+00 0.000000e+00
-7.750000e+00 0.000000e+00
-7.740000e+00 0.000000e+00
-7.730000e+00 0.000000e+00
-7.720000e+00 0.000000e+00
-7.710000e+00 0.000000e+00
-7.700000e+00 0.000000e+00
-7.690000e+00 0.000000e+00
-7.680000e+00 0.000000e+00
-7.670000e+00 0.000000e+00
-7.660000e+00 0.000000e+00
-7.650000e+00 0.000000e+00
-7.640000e+00 0.000000e+00
-7.630000e+00 0.000000e+00
-7.620000e+00 0.000000e+00
-7.610000e+00 0.000000e+00
-7.600000e+00 0.000000e+00
-7.590000e+00 0.000000e+00
-7.580000e+00 0.000000e+00
-7.570000e+00 0.000000e+00
-7.560000e+00 0.000000e+00
-7.550000e+00 0.000000e+00
-7.540000e+00 0.000000e+00
-7.530000e+00 0.000000e+00
-7.520000e+00 0.000000e+00
-7.510000e+00 0.000000e+00
-7.500000e+00 0.000000e+00
-7.490000e+00 0.000000e+00
-7.480000e+00 0.000000e+00
-7.470000e+00 0.000000e+00
-7.460000e+00 0.000000e+00
-7.450000e+00 0.000000e+00
-7.440000e+00 0.000000e+00
-7.430000e+00 0.000000e+00
-7.420000e+00 0.000000e+00
-7.410000e+00 0.000000e+00
-7.400000e+00 0.000000e+00
-7.390000e+00 0.000000e+00
-7.380000e+00 0.000000e+00
-7.370000e+00 0.000000e+00
-7.360000e+00 0.000000e+00
-7.350000e+00 0.000000e+00
-7.340000e+00 0.000000e+00
-7.330000e+00 0.000000e+00
-7.320000e+00 0.000000e+00
-7.310000e+00 0.000000e+00
-7.300000e+00 0.000000e+00
-7.290000e+00 0.000000e+00
-7.280000e+00 0.000000e+00
-7.270000e+00 0.000000e+00
-7.260000e+00 0.000000e+00
-7.250000e+00 0.000000e+00
-7.240000e+00 0.000000e+00
-7.230000e+00 0.000000e+00
-7.220000e+00 0.000000e+00
-7.210000e+00 0.000000e+00
-7.200000e+00 0.000000e+00
-7.190000e+00 0.000000e+00
-7.180000e+00 0.000000e+00
-7.170000e+00 0.000000e+00
-7.160000e+00 0.000000e+00
-7.150000e+00 0.000000e+00
-7.140000e+00 0.000000e+00
-7.130000e+00 0.000000e+00
-7.120000e+00 0.000000e+00
-7.110000e+00 0.000000e+00
-7.100000e+00 0.000000e+00
-7.090000e+00 0.000000e+00
-7.080000e+00 0.000000e+00
-7.070000e+00 0.000000e+00
-7.060000e+00 0.000000e+00
-7.050000e+00 0.000000e+00
-7.040000e+00 0.000000e+00
-7.030000e+00 0.000000e+00
-7.020000e+00 0.000000e+00
-7.010000e+00 0.000000e+00
-7.000000e+00 0.000000e+00
-6.990000e+00 0.000000e+00
-6.980000e+00 0.000000e+00
-6.970000e+00 0.000000e+00
-6.960000e+00 0.000000e+00
-6.950000e+00 0.000000e+00
-6.940000e+00 0.000000e+00
-6.930000e+00 0.000000e+00
-6.920000e+00 0.000000e+00
-6.910000e+00 0.000000e+00
-6.900000e+00 0.000000e+00
-6.890000e+00 0.000000e+00
-6.880000e+00 0.000000e+00
-6.870000e+00 0.000000e+00
-6.860000e+00 0.000000e+00
-6.850000e+00 0.000000e+00
-6.840000e+00 0.000000e+00
-6.830000e+00 0.000000e+00
-6.820000e+00 0.000000e+00
-6.810000e+00 0.000000e+00
-6.800000e+00 0.000000e+00
-6.790000e+00 0.000000e+00
-6.780000e+00 0.000000e+00
-6.770000e+00 0.000000e+00
-6.760000e+00 0.000000e+00
-6.750000e+00 0.000000e+00
-6.740000e+00 0.000000e+00
-6.730000e+00 0.000000e+00
-6.720000e+00 0.000000e+00
-6.710000e+00 0.000000e+00
-6.700000e+00 0.000000e+00
-6.690000e+00 0.000000e+00
-6.680000e+00 0.000000e+00
-6.670000e+00 0.000000e+00
-6.660000e+00 0.000000e+00
-6.650000e+00 0.000000e+00
-6.640000e+00 0.000000e+00
-6.630000e+00 0.000000e+00
-6.620000e+00 0.000000e+00
-6.610000e+00 0.000000e+00
-6.600000e+00 0.000000e+00
-6.590000e+00 0.000000e+00
-6.580000e+00 0.000000e+00
-6.570000e+00 0.000000e+00
-6.560000e+00 0.000000e+00
-6.550000e+00 0.000000e+00
-6.540000e+00 0.000000e+00
-6.530000e+00 0.000000e+00
-6.520000e+00 0.000000e+00
-6.510000e+00 0.000000e+00
-6.500000e+00 0.000000e+00
-6.490000e+00 0.000000e+00
-6.480000e+00 0.000000e+00
-6.470000e+00 0.000000e+00
-6.460000e+00 0.000000e+00
-6.450000e+00 0.000000e+00
-6.440000e+00 0.000000e+00
-6.430000e+00 0.000000e+00
-6.420000e+00 0.000000e+00
-6.410000e+00 0.000000e+00
-6.400000e+00 0.000000e+00
-6.390000e+00 0.000000e+00
-6.380000e+00 0.000000e+00
-6.370000e+00 0.000000e+00
-6.360000e+00 0.000000e+00
-6.350000e+00 0.000000e+00
-6.340000e+00 0.000000e+00
-6.330000e+00 0.000000e+00
-6.320000e+00 0.000000e+00
-6.310000e+00 0.000000e+00
-6.300000e+00 0.000000e+00
-6.290000e+00 0.000000e+00
-6.280000e+00 0.000000e+00
-6.270000e+00 0.000000e+00
-6.260000e+00 0.000000e+00
-6.250000e+00 0.000000e+00
-6.240000e+00 0.000000e+00
-6.230000e+00 0.000000e+00
-6.220000e+00 0.000000e+00
-6.210000e+00 0.000000e+00
-6.200000e+00 0.000000e+00
-6.190000e+00 0.000000e+00
-6.180000e+00 0.000000e+00
-6.170000e+00 0.000000e+00
-6.160000e+00 0.000000e+00
-6.150000e+00 0.000000e+00
-6.140000e+00 0.000000e+00
-6.130000e+00 0.000000e+00
-6.120000e+00 0.000000e+00
-6.110000e+00 0.000000e+00
-6.100000e+00 0.000000e+00
-6.090000e+00 0.000000e+00
-6.080000e+00 0.000000e+00
-6.070000e+00 0.000000e+00
-6.060000e+00 0.000000e+00
-6.050000e+00 0.000000e+00
-6.040000e+00 0.000000e+00
-6.030000e+00 0.000000e+00
-6.020000e+00 0.000000e+00
-6.010000e+00 0.000000e+00
-6.000000e+00 0.000000e+00
-5.990000e+00 0.000000e+00
-5.980000e+00 0.000000e+00
-5.970000e+00 0.000000e+00
-5.960000e+00 0.000000e+00
-5.950000e+00 0.000000e+00
-5.940000e+00 0.000000e+00
-5.930000e+00 0.000000e+00
-5.920000e+00 0.000000e+00
-5.910000e+00 0.000000e+00
-5.900000e+00 0.000000e+00
-5.890000e+00 0.000000e+00
-5.880000e+00 0.000000e+00
-5.870000e+00 0.000000e+00
-5.860000e+00 0.000000e+00
-5.850000e+00 0.000000e+00
-5.840000e+00 0.000000e+00
-5.830000e+00 0.000000e+00
-5.820000e+00 0.000000e+00
-5.810000e+00 0.000000e+00
-5.800000e+00 0.000000e+00
-5.790000e+00 0.000000e+00
-5.780000e+00 0.000000e+00
-5.770000e+00 0.000000e+00
-5.760000e+00 0.000000e+00
-5.750000e+00 0.000000e+00
-5.740000e+00 0.000000e+00
-5.730000e+00 0.000000e+00
-5.720000e+00 0.000000e+00
-5.710000e+00 0.000000e+00
-5.700000e+00 0.000000e+00
-5.690000e+00 0.000000e+00
-5.680000e+00 0.000000e+00
-5.670000e+00 0.000000e+00
-5.660000e+00 0.000000e+00
-5.650000e+00 0.000000e+00
-5.640000e+00 0.000000e+00
-5.630000e+00 0.000000e+00
-5.620000e+00 0.000000e+00
-5.610000e+00 0.000000e+00
-5.600000e+00 0.000000e+00
-5.590000e+00 0.000000e+00
-5.580000e+00 0.000000e+00
-5.570000e+00 0.000000e+00
-5.560000e+00 0.000000e+00
-5.550000e+00 0.000000e+00
-5.540000e+00 0.000000e+00
-5.530000e+00 0.000000e+00
-5.520000e+00 0.000000e+00
-5.510000e+00 0.000000e+00
-5.500000e+00 0.000000e+00
-5.490000e+00 0.000000e+00
-5.480000e+00 0.000000e+00
-5.470000e+00 0.000000e+00
-5.460000e+00 0.000000e+00
-5.450000e+00 0.000000e+00
-5.440000e+00 0.000000e+00
-5.430000e+00 0.000000e+00
-5.420000e+00 0.000000e+00
-5.410000e+00 0.000000e+00
-5.400000e+00 0.000000e+00
-5.390000e+00 0.000000e+00
-5.380000e+00 0.000000e+00
-5.370000e+00 0.000000e+00
-5.360000e+00 0.000000e+00
-5.350000e+00 0.000000e+00
-5.340000e+00 0.000000e+00
-5.330000e+00 0.000000e+00
-5.320000e+00 0.000000e+00
-5.310000e+00 0.000000e+00
-5.300000e+00 0.000000e+00
-5.290000e+00 0.000000e+00
-5.280000e+00 0.000000e+00
-5.270000e+00 0.000000e+00
-5.260000e+00 0.000000e+00
-5.250000e+00 0.000000e+00
-5.240000e+00 0.000000e+00
-5.230000e+00 0.000000e+00
-5.220000e+00 0.000000e+00
-5.210000e+00 0.000000e+00
-5.200000e+00 0.000000e+00
-5.190000e+00 0.000000e+00
-5.180000e+00 0.000000e+00
-5.170000e+00 0.000000e+00
-5.160000e+00 0.000000e+00
-5.150000e+00 0.000000e+00
-5.140000e+00 0.000000e+00
-5.130000e+00 0.000000e+00
-5.120000e+00 0.000000e+00
-5.110000e+00 0.000000e+00
-5.100000e+00 0.000000e+00
-5.090000e+00 0.000000e+00
-5.080000e+00 0.000000e+00
-5.070000e+00 0.000000e+00
-5.060000e+00 0.000000e+00
-5.050000e+00 0.000000e+00
-5.040000e+00 0.000000e+00
-5.030000e+00 0.000000e+00
-5.020000e+00 0.000000e+00
-5.010000e+00 0.000000e+00
-5.000000e+00 0.000000e+00
-4.990000e+00 0.000000e+00
-4.980000e+00 0.000000e+00
-4.970000e+00 0.000000e+00
-4.960000e+00 0.000000e+00
-4.950000e+00 0.000000e+00
-4.940000e+00 0.000000e+00
-4.930000e+00 0.000000e+00
-4.920000e+00 0.000000e+00
-4.910000e+00 0.000000e+00
-4.900000e+00 0.000000e+00
-4.890000e+00 0.000000e+00
-4.880000e+00 0.000000e+00
-4.870000e+00 0.000000e+00
-4.860000e+00 0.000000e+00
-4.850000e+00 0.000000e+00
-4.840000e+00 0.000000e+00
-4.830000e+00 0.000000e+00
-4.820000e+00 0.000000e+00
-4.810000e+00 0.000000e+00
-4.800000e+00 0.000000e+00
-4.790000e+00 0.000000e+00
-4.780000e+00 0.000000e+00
-4.770000e+00 0.000000e+00
-4.760000e+00 0.000000e+00
-4.750000e+00 0.000000e+00
-4.740000e+00 0.000000e+00
-4.730000e+00 0.000000e+00
-4.720000e+00 0.000000e+00
-4.710000e+00 0.000000e+00
-4.700000e+00 0.000000e+00
-4.690000e+00 0.000000e+00
-4.680000e+00 0.000000e+00
-4.670000e+00 0.000000e+00
-4.660000e+00 1.401298e-45
-4.650000e+00 1.401298e-45
-4.640000e+00 0.000000e+00
-4.630000e+00 0.000000e+00
-4.620000e+00 -2.802597e-45
-4.610000e+00 -1.401298e-45
-4.600000e+00 0.000000e+00
-4.590000e+00 0.000000e+00
-4.580000e+00 -1.401298e-45
-4.570000e+00 -1.401298e-45
-4.560000e+00 -2.802597e-45
-4.550000e+00 -4.203895e-45
-4.540000e+00 -5.605194e-45
-4.530000e+00 -2.802597e-45
-4.520000e+00 -2.802597e-45
-4.510000e+00 -4.203895e-45
-4.500000e+00 -2.802597e-45
-4.490000e+00 -1.401298e-45
-4.480000e+00 -2.802597e-45
-4.470000e+00 -1.401298e-45
-4.460000e+00 0.000000e+00
-4.450000e+00 1.401298e-45
-4.440000e+00 1.401298e-45
-4.430000e+00 0.000000e+00
-4.420000e+00 0.000000e+00
-4.410000e+00 2.802597e-45
-4.400000e+00 1.401298e-45
-4.390000e+00 0.000000e+00
-4.380000e+00 -2.802597e-45
-4.370000e+00 -4.203895e-45
-4.360000e+00 -2.802597e-45
-4.350000e+00 -4.203895e-45
-4.340000e+00 -7.006492e-45
-4.330000e+00 -1.121039e-44
-4.320000e+00 -1.401298e-44
-4.310000e+00 -1.821688e-44
-4.300000e+00 -2.101948e-44
-4.290000e+00 -1.681558e-44
-4.280000e+00 -1.821688e-44
-4.270000e+00 -1.821688e-44
-4.260000e+00 -1.401298e-44
-4.250000e+00 -1.541428e-44
-4.240000e+00 -1.121039e-44
-4.230000e+00 -8.407791e-45
-4.220000e+00 -7.006492e-45
-4.210000e+00 -4.203895e-45
-4.200000e+00 -8.407791e-45
-4.190000e+00 -2.802597e-45
-4.180000e+00 -5.605194e-45
-4.170000e+00 -1.121039e-44
-4.160000e+00 -1.401298e-44
-4.150000e+00 -1.821688e-44
-4.140000e+00 -2.242078e-44
-4.130000e+00 -1.961818e-44
-4.120000e+00 -2.382207e-44
-4.110000e+00 -3.503246e-44
-4.100000e+00 -4.063766e-44
-4.090000e+00 -6.445973e-44
-4.080000e+00 -8.547921e-44
-4.070000e+00 -9.108440e-44
-4.060000e+00 -9.949219e-44
-4.050000e+00 -1.163078e-43
-4.040000e+00 -1.317221e-43
-4.030000e+00 -1.359260e-43
-4.020000e+00 -1.485376e-43
-4.010000e+00 -1.653532e-43
-4.000000e+00 -1.779649e-43
-3.990000e+00 -1.737610e-43
-3.980000e+00 -1.821688e-43
-3.970000e+00 -1.821688e-43
-3.960000e+00 -1.849714e-43
-3.950000e+00 -1.779649e-43
-3.940000e+00 -1.667545e-43
-3.930000e+00 -1.513402e-43
-3.920000e+00 -1.289195e-43
-3.910000e+00 -9.949219e-44
-3.900000e+00 -6.866362e-44
-3.890000e+00 -2.802597e-44
-3.880000e+00 1.261169e-44
-3.870000e+00 5.324934e-44
-3.860000e+00 9.809089e-44
-3.850000e+00 1.611493e-43
-3.840000e+00 1.961818e-43
-3.830000e+00 2.564376e-43
-3.820000e+00 2.998779e-43
-3.810000e+00 3.321077e-43
-3.800000e+00 3.699428e-43
-3.790000e+00 3.951662e-43
-3.780000e+00 4.161856e-43
-3.770000e+00 4.231921e-43
-3.760000e+00 4.175869e-43
-3.750000e+00 3.895610e-43
-3.740000e+00 3.461207e-43
-3.730000e+00 2.928714e-43
-3.720000e+00 2.200039e-43
-3.710000e+00 1.247156e-43
-3.700000e+00 1.821688e-44
-3.690000e+00 -1.079000e-43
-3.680000e+00 -2.536350e-43
-3.670000e+00 -3.965675e-43
-3.660000e+00 -5.563155e-43
-3.650000e+00 -7.160635e-43
-3.640000e+00 -8.744102e-43
-3.630000e+00 -1.014540e-42
-3.620000e+00 -1.143460e-42
-3.610000e+00 -1.255563e-42
-3.600000e+00 -1.346648e-42
-3.590000e+00 -1.384483e-42
-3.580000e+00 -1.398496e-42
-3.570000e+00 -1.349450e-42
-3.560000e+00 -1.241550e-42
-3.550000e+00 -1.076197e-42
-3.540000e+00 -8.393778e-43
-3.530000e+00 -5.352960e-43
-3.520000e+00 -1.639519e-43
-3.510000e+00 2.648454e-43
-3.500000e+00 7.875297e-43
-3.490000e+00 1.339641e-42
-3.480000e+00 1.943601e-42
-3.470000e+00 2.581192e-42
-3.460000e+00 3.235598e-42
-3.450000e+00 3.877393e-42
-3.440000e+00 4.491162e-42
-3.430000e+00 5.055885e-42
-3.420000e+00 5.537932e-42
-3.410000e+00 5.902269e-42
-3.400000e+00 6.130681e-42
-3.390000e+00 6.188134e-42
-3.380000e+00 6.024182e-42
-3.370000e+00 5.647233e-42
-3.360000e+00 5.011043e-42
-3.350000e+00 4.103002e-42
-3.340000e+00 2.907694e-42
-3.330000e+00 1.408305e-42
-3.320000e+00 -3.629363e-43
-3.310000e+00 -2.418641e-42
-3.300000e+00 -4.730784e-42
-3.290000e+00 -7.243312e-42
-3.280000e+00 -9.921193e-42
-3.270000e+00 -1.270277e-41
-3.260000e+00 -1.548855e-41
-3.250000e+00 -1.820707e-41
-3.240000e+00 -2.074482e-41
-3.230000e+00 -2.297008e-41
-3.220000e+00 -2.477776e-41
-3.210000e+00 -2.603893e-41
-3.200000e+00 -2.659384e-41
-3.190000e+00 -2.635983e-41
-3.180000e+00 -2.516312e-41
-3.170000e+00 -2.292244e-41
-3.160000e+00 -1.952990e-41
-3.150000e+00 -1.492663e-41
-3.140000e+00 -9.053789e-42
-3.130000e+00 -1.916976e-42
-3.120000e+00 6.433361e-42
-3.110000e+00 1.592716e-41
-3.100000e+00 2.640186e-41
-3.090000e+00 3.768372e-41
-3.080000e+00 4.948686e-41
-3.070000e+00 6.149879e-41
-3.060000e+00 7.333555e-41
-3.050000e+00 8.457677e-41
-3.040000e+00 9.470536e-41
-3.030000e+00 1.032267e-40
-3.020000e+00 1.095325e-40
-3.010000e+00 1.130862e-40
-3.000000e+00 1.132908e-40
-2.990000e+00 1.095899e-40
-2.980000e+00 1.015087e-40
-2.970000e+00 8.857748e-41
-2.960000e+00 7.047270e-41
-2.950000e+00 4.698554e-41
-2.940000e+00 1.805853e-41
-2.930000e+00 -1.619060e-41
-2.920000e+00 -5.542836e-41
-2.910000e+00 -9.909562e-41
-2.900000e+00 -1.463852e-40
-2.890000e+00 -1.962575e-40
-2.880000e+00 -2.473712e-40
-2.870000e+00 -2.981529e-40
-2.860000e+00 -3.467821e-40
-2.850000e+00 -3.912481e-40
-2.840000e+00 -4.293312e-40
-2.830000e+00 -4.586870e-40
-2.820000e+00 -4.769053e-40
-2.810000e+00 -4.816193e-40
-2.800000e+00 -4.705210e-40
-2.790000e+00 -4.414987e-40
-2.780000e+00 -3.927461e-40
-2.770000e+00 -3.228648e-40
-2.760000e+00 -2.309620e-40
-2.750000e+00 -1.167828e-40
-2.740000e+00 1.919639e-41
-2.730000e+00 1.756654e-40
-2.720000e+00 3.504171e-40
-2.710000e+00 5.402524e-40
-2.700000e+00 7.410122e-40
-2.690000e+00 9.474978e-40
-2.680000e+00 1.153519e-39
-2.670000e+00 1.352043e-39
-2.660000e+00 1.535208e-39
-2.650000e+00 1.694537e-39
-2.640000e+00 1.821111e-39
-2.630000e+00 1.905914e-39
-2.620000e+00 1.939960e-39
-2.610000e+00 1.914696e-39
-2.600000e+00 1.822498e-39
-2.590000e+00 1.656771e-39
-2.580000e+00 1.412537e-39
-2.570000e+00 1.086771e-39
-2.560000e+00 6.788282e-40
-2.550000e+00 1.905528e-40
-2.540000e+00 -3.730845e-40
-2.530000e+00 -1.004106e-39
-2.520000e+00 -1.691193e-39
-2.510000e+00 -2.419703e-39
-2.500000e+00 -3.171716e-39
-2.490000e+00 -3.926230e-39
-2.480000e+00 -4.659598e-39
-2.470000e+00 -5.345802e-39
-2.460000e+00 -5.957243e-39
-2.450000e+00 -6.465221e-39
-2.440000e+00 -6.841040e-39
-2.430000e+00 -7.056571e-39
-2.420000e+00 -7.085894e-39
-2.410000e+00 -6.905447e-39
-2.400000e+00 -6.495809e-39
-2.390000e+00 -5.842589e-39
-2.380000e+00 -4.937014e-39
-2.370000e+00 -3.777182e-39
-2.360000e+00 -2.368609e-39
-2.350000e+00 -7.244923e-40
-2.340000e+00 1.133355e-39
-2.330000e+00 3.175283e-39
-2.320000e+00 5.363869e-39
-2.310000e+00 7.654157e-39
-2.300000e+00 9.994373e-39
-2.290000e+00 1.232826e-38
-2.280000e+00 1.459500e-38
-2.270000e+00 1.673140e-38
-2.260000e+00 1.867337e-38
-2.250000e+00 2.035844e-38
-2.240000e+00 2.172632e-38
-2.230000e+00 2.272227e-38
-2.220000e+00 2.329659e-38
-2.210000e+00 2.340705e-38
-2.200000e+00 2.301983e-38
-2.190000e+00 2.210868e-38
-2.180000e+00 2.065659e-38
-2.170000e+00 1.865311e-38
-2.160000e+00 1.609658e-38
-2.150000e+00 1.298755e-38
-2.140000e+00 9.332358e-39
-2.130000e+00 5.136332e-39
-2.120000e+00 4.053144e-40
-2.110000e+00 -4.859131e-39
-2.100000e+00 -1.066321e-38
-2.090000e+00 -1.701281e-38
-2.080000e+00 -2.392550e-38
-2.070000e+00 -3.142012e-38
-2.060000e+00 -3.952046e-38
-2.050000e+00 -4.824330e-38
-2.040000e+00 -5.760345e-38
-2.030000e+00 -6.759151e-38
-2.020000e+00 -7.817128e-38
-2.010000e+00 -8.926568e-38
-2.000000e+00 -1.007415e-37
-1.990000e+00 -1.123956e-37
-1.980000e+00 -1.239338e-37
-1.970000e+00 -1.349695e-37
-1.960000e+00 -1.449886e-37
-1.950000e+00 -1.533573e-37
-1.940000e+00 -1.592923e-37
-1.930000e+00 -1.618908e-37
-1.920000e+00 -1.601120e-37
-1.910000e+00 -1.527931e-37
-1.900000e+00 -1.386828e-37
-1.890000e+00 -1.164711e-37
-1.880000e+00 -8.484452e-38
-1.870000e+00 -4.254573e-38
-1.860000e+00 1.157360e-38
-1.850000e+00 7.841250e-38
-1.840000e+00 1.585717e-37
-1.830000e+00 2.522245e-37
-1.820000e+00 3.590006e-37
-1.810000e+00 4.778625e-37
-1.800000e+00 6.069968e-37
-1.790000e+00 7.437217e-37
-1.780000e+00 8.843668e-37
-1.770000e+00 1.024212e-36
-1.760000e+00 1.157486e-36
-1.750000e+00 1.277356e-36
-1.740000e+00 1.375877e-36
-1.730000e+00 1.444274e-36
-1.720000e+00 1.473041e-36
-1.710000e+00 1.452133e-36
-1.700000e+00 1.371302e-36
-1.690000e+00 1.220583e-36
-1.680000e+00 9.906612e-37
-1.670000e+00 6.734405e-37
-1.660000e+00 2.627001e-37
-1.650000e+00 -2.454487e-37
-1.640000e+00 -8.516072e-37
-1.630000e+00 -1.552546e-36
-1.620000e+00 -2.340637e-36
-1.610000e+00 -3.203055e-36
-1.600000e+00 -4.121415e-36
-1.590000e+00 -5.071230e-36
-1.580000e+00 -6.021873e-36
-1.570000e+00 -6.936259e-36
-1.560000e+00 -7.771528e-36
-1.550000e+00 -8.479132e-36
-1.540000e+00 -9.006014e-36
-1.530000e+00 -9.295608e-36
-1.520000e+00 -9.289815e-36
-1.510000e+00 -8.930328e-36
-1.500000e+00 -8.161687e-36
-1.490000e+00 -6.933639e-36
-1.480000e+00 -5.203911e-36
-1.470000e+00 -2.941969e-36
-1.460000e+00 -1.320324e-37
-1.450000e+00 3.223255e-36
-1.440000e+00 7.099532e-36
-1.430000e+00 1.144810e-35
-1.420000e+00 1.619226e-35
-1.410000e+00 2.122559e-35
-1.400000e+00 2.641079e-35
-1.390000e+00 3.157934e-35
-1.380000e+00 3.653174e-35
-1.370000e+00 4.104021e-35
-1.360000e+00 4.485160e-35
-1.350000e+00 4.769299e-35
-1.340000e+00 4.927965e-35
-1.330000e+00 4.932124e-35
-1.320000e+00 4.753446e-35
-1.310000e+00 4.365457e-35
-1.300000e+00 3.744776e-35
-1.290000e+00 2.872718e-35
-1.280000e+00 1.736612e-35
-1.270000e+00 3.317394e-36
-1.260000e+00 -1.337484e-35
-1.250000e+00 -3.255971e-35
-1.240000e+00 -5.396273e-35
-1.230000e+00 -7.718247e-35
-1.220000e+00 -1.016745e-34
-1.210000e+00 -1.267549e-34
-1.200000e+00 -1.515962e-34
-1.190000e+00 -1.752365e-34
-1.180000e+00 -1.965933e-34
-1.170000e+00 -2.144810e-34
-1.160000e+00 -2.276371e-34
-1.150000e+00 -2.347662e-34
-1.140000e+00 -2.345602e-34
-1.130000e+00 -2.257733e-34
-1.120000e+00 -2.072560e-34
-1.110000e+00 -1.780298e-34
-1.100000e+00 -1.373405e-34
-1.090000e+00 -8.473194e-35
-1.080000e+00 -2.011122e-35
-1.070000e+00 5.619335e-35
-1.060000e+00 1.433680e-34
-1.050000e+00 2.400553e-34
-1.040000e+00 3.443400e-34
-1.030000e+00 4.536992e-34
-1.020000e+00 5.650072e-34
-1.010000e+00 6.745551e-34
-1.000000e+00 7.780865e-34
-9.900002e-01 8.708635e-34
-9.800000e-01 9.477639e-34
-9.700003e-01 1.003401e-33
-9.600000e-01 1.032292e-33
-9.500003e-01 1.029026e-33
-9.400001e-01 9.884720e-34
-9.300003e-01 9.060305e-34
-9.200001e-01 7.778709e-34
-9.100003e-01 6.011842e-34
-9.000001e-01 3.744822e-34
-8.900003e-01 9.781427e-35
-8.800001e-01 -2.269395e-34
-8.700004e-01 -5.958872e-34
-8.600001e-01 -1.002931e-33
-8.500004e-01 -1.439620e-33
-8.400002e-01 -1.895117e-33
-8.299999e-01 -2.356196e-33
-8.200002e-01 -2.807355e-33
-8.099999e-01 -3.230999e-33
-8.000002e-01 -3.607753e-33
-7.900000e-01 -3.916887e-33
-7.800002e-01 -4.136848e-33
-7.700000e-01 -4.245871e-33
-7.600002e-01 -4.222807e-33
-7.500000e-01 -4.047882e-33
-7.400002e-01 -3.703658e-33
-7.300000e-01 -3.176009e-33
-7.200003e-01 -2.455137e-33
-7.100000e-01 -1.536614e-33
-7.000003e-01 -4.222875e-34
-6.900001e-01 8.788026e-34
-6.800003e-01 2.349550e-33
-6.700001e-01 3.964332e-33
-6.600003e-01 5.688499e-33
-6.500001e-01 7.478306e-33
-6.400003e-01 9.280989e-33
-6.300001e-01 1.103540e-32
-6.200004e-01 1.267285e-32
-6.100001e-01 1.411839e-32
-6.000004e-01 1.529247e-32
-5.900002e-01 1.611317e-32
-5.800004e-01 1.649867e-32
-5.700002e-01 1.637013e-32
-5.599999e-01 1.565491e-32
-5.500002e-01 1.429007e-32
-5.400000e-01 1.222607e-32
-5.300002e-01 9.430314e-33
-5.200000e-01 5.891023e-33
-5.100002e-01 1.620572e-33
-5.000000e-01 -3.341234e-33
-4.900002e-01 -8.924839e-33
-4.800000e-01 -1.502850e-32
-4.700003e-01 -2.151760e-32
-4.600000e-01 -2.822422e-32
-4.500003e-01 -3.494817e-32
-4.400001e-01 -4.145963e-32
-4.300003e-01 -4.750201e-32
-4.200001e-01 -5.279806e-32
-4.100003e-01 -5.705537e-32
-4.000001e-01 -5.997536e-32
-3.900003e-01 -6.126205e-32
-3.800001e-01 -6.063313e-32
-3.700004e-01 -5.783147e-32
-3.600001e-01 -5.263777e-32
-3.500004e-01 -4.488341e-32
-3.400002e-01 -3.446392e-32
-3.300004e-01 -2.135185e-32
-3.200002e-01 -5.608168e-33
-3.099999e-01 1.260657e-32
-3.000002e-01 3.302381e-32
-2.900000e-01 5.526062e-32
-2.800002e-01 7.881650e-32
-2.700000e-01 1.030748e-31
-2.600002e-01 1.273054e-31
-2.500000e-01 1.506759e-31
-2.400002e-01 1.722637e-31
-2.300000e-01 1.910771e-31
-2.200003e-01 2.060769e-31
-2.100000e-01 2.162072e-31
-2.000003e-01 2.204279e-31
-1.900001e-01 2.177543e-31
-1.800003e-01 2.072968e-31
-1.700001e-01 1.883043e-31
-1.600003e-01 1.602120e-31
-1.500001e-01 1.226837e-31
-1.400003e-01 7.565649e-32
-1.300001e-01 1.938219e-32
-1.200004e-01 -4.553855e-32
-1.100001e-01 -1.181280e-31
-1.000004e-01 -1.970103e-31
-9.000015e-02 -2.804057e-31
-8.000040e-02 -3.661295e-31
-7.000017e-02 -4.516153e-31
-5.999994e-02 -5.339462e-31
-5.000019e-02 -6.099011e-31
-3.999996e-02 -6.760288e-31
-3.000021e-02 -7.287280e-31
-1.999998e-02 -7.643470e-31
-1.000023e-02 -7.792981e-31
0.000000e+00 -7.701971e-31
1.000023e-02 -7.339868e-31
1.999950e-02 -6.681047e-31
2.999973e-02 -5.706211e-31
3.999996e-02 -4.403989e-31
5.000019e-02 -2.772348e-31
5.999947e-02 -8.200065e-32
6.999969e-02 1.432454e-31
7.999992e-02 3.951648e-31
9.000015e-02 6.690710e-31
9.999943e-02 9.589010e-31
1.099997e-01 1.257242e-30
1.199999e-01 1.555377e-30
1.300001e-01 1.843405e-30
1.399994e-01 2.110415e-30
1.499996e-01 2.344690e-30
1.599998e-01 2.534012e-30
1.700001e-01 2.665967e-30
1.799994e-01 2.728358e-30
1.899996e-01 2.709613e-30
1.999998e-01 2.599251e-30
2.100000e-01 2.388392e-30
2.200003e-01 2.070222e-30
2.299995e-01 1.640549e-30
2.399998e-01 1.098230e-30
2.500000e-01 4.456599e-31
2.600002e-01 -3.108628e-31
2.699995e-01 -1.160814e-30
2.799997e-01 -2.089219e-30
2.900000e-01 -3.076553e-30
3.000002e-01 -4.098789e-30
3.099995e-01 -5.127556e-30
3.199997e-01 -6.130492e-30
3.299999e-01 -7.071778e-30
3.400002e-01 -7.912821e-30
3.499994e-01 -8.613142e-30
3.599997e-01 -9.131420e-30
3.699999e-01 -9.426750e-30
3.800001e-01 -9.459940e-30
3.899994e-01 -9.195041e-30
3.999996e-01 -8.600907e-30
4.099998e-01 -7.652808e-30
4.200001e-01 -6.334041e-30
4.299994e-01 -4.637528e-30
4.399996e-01 -2.567258e-30
4.499998e-01 -1.396147e-31
4.600000e-01 2.615623e-30
4.700003e-01 5.654392e-30
4.799995e-01 8.918016e-30
4.899998e-01 1.233309e-29
5.000000e-01 1.581201e-29
5.100002e-01 1.925387e-29
5.199995e-01 2.254595e-29
5.299997e-01 2.556576e-29
5.400000e-01 2.818369e-29
5.500002e-01 3.026604e-29
5.599995e-01 3.167882e-29
5.699997e-01 3.229184e-29
5.799999e-01 3.198328e-29
5.900002e-01 3.064447e-29
5.999994e-01 2.818493e-29
6.099997e-01 2.453756e-29
6.199999e-01 1.966344e-29
6.300001e-01 1.355668e-29
6.399994e-01 6.248640e-30
6.499996e-01 -2.188433e-30
6.599998e-01 -1.163849e-29
6.700001e-01 -2.194007e-29
6.799994e-01 -3.288540e-29
6.899996e-01 -4.422133e-29
6.999998e-01 -5.565144e-29
7.100000e-01 -6.683987e-29
7.200003e-01 -7.741670e-29
7.299995e-01 -8.698511e-29
7.399998e-01 -9.513044e-29
7.500000e-01 -1.014303e-28
7.600002e-01 -1.054666e-28
7.699995e-01 -1.068391e-28
7.799997e-01 -1.051792e-28
7.900000e-01 -1.001648e-28
8.000002e-01 -9.153621e-29
8.099995e-01 -7.911100e-29
8.199997e-01 -6.279864e-29
8.299999e-01 -4.261437e-29
8.400002e-01 -1.869084e-29
8.499994e-01 8.711558e-30
8.599997e-01 3.919768e-29
8.699999e-01 7.223359e-29
8.800001e-01 1.071466e-28
8.899994e-01 1.431283e-28
8.999996e-01 1.792441e-28
9.099998e-01 2.144452e-28
9.200001e-01 2.475873e-28
9.299994e-01 2.774531e-28
9.399996e-01 3.027802e-28
9.499998e-01 3.222936e-28
9.600000e-01 3.347408e-28
9.700003e-01 3.389329e-28
9.799995e-01 3.337862e-28
9.899998e-01 3.183648e-28
1.000000e+00 2.919278e-28
1.010000e+00 2.539699e-28
1.020000e+00 2.042651e-28
1.030000e+00 1.429032e-28
1.040000e+00 7.032395e-29
1.050000e+00 -1.265863e-29
1.059999e+00 -1.048365e-28
1.070000e+00 -2.046002e-28
1.080000e+00 -3.099408e-28
1.090000e+00 -4.184638e-28
1.099999e+00 -5.274173e-28
1.110000e+00 -6.337328e-28
1.120000e+00 -7.340772e-28
1.130000e+00 -8.249225e-28
1.139999e+00 -9.026269e-28
1.150000e+00 -9.635254e-28
1.160000e+00 -1.004034e-27
1.170000e+00 -1.020763e-27
1.179999e+00 -1.010633e-27
1.190000e+00 -9.709990e-28
1.200000e+00 -8.997689e-28
1.210000e+00 -7.955258e-28
1.220000e+00 -6.576393e-28
1.230000e+00 -4.863646e-28
1.240000e+00 -2.829307e-28
1.250000e+00 -4.960716e-29
1.260000e+00 2.102542e-28
1.270000e+00 4.921986e-28
1.280000e+00 7.906831e-28
1.290000e+00 1.099119e-27
1.300000e+00 1.409954e-27
1.309999e+00 1.714785e-27
1.320000e+00 2.004508e-27
1.330000e+00 2.269504e-27
1.340000e+00 2.499867e-27
1.349999e+00 2.685642e-27
1.360000e+00 2.817101e-27
1.370000e+00 2.885058e-27
1.380000e+00 2.881155e-27
1.389999e+00 2.798203e-27
1.400000e+00 2.630486e-27
1.410000e+00 2.374070e-27
1.420000e+00 2.027096e-27
1.429999e+00 1.590024e-27
1.440000e+00 1.065862e-27
1.450000e+00 4.603166e-28
1.460000e+00 -2.180940e-28
1.469999e+00 -9.580149e-28
1.480000e+00 -1.745285e-27
1.490000e+00 -2.563075e-27
1.500000e+00 -3.392093e-27
1.510000e+00 -4.210891e-27
1.520000e+00 -4.996256e-27
1.530000e+00 -5.723673e-27
1.540000e+00 -6.367918e-27
1.550000e+00 -6.903647e-27
1.559999e+00 -7.306128e-27
1.570000e+00 -7.551963e-27
1.580000e+00 -7.619853e-27
1.590000e+00 -7.491377e-27
1.599999e+00 -7.151818e-27
1.610000e+00 -6.590818e-27
1.620000e+00 -5.803146e-27
1.630000e+00 -4.789251e-27
1.639999e+00 -3.555785e-27
1.650000e+00 -2.115960e-27
1.660000e+00 -4.897857e-28
1.670000e+00 1.295883e-27
1.679999e+00 3.207488e-27
1.690000e+00 5.205103e-27
1.700000e+00 7.242961e-27
1.710000e+00 9.270220e-27
1.719999e+00 1.123193e-26
1.730000e+00 1.307015e-26
1.740000e+00 1.472536e-26
1.750000e+00 1.613786e-26
1.760000e+00 1.724952e-26
1.770000e+00 1.800539e-26
1.780000e+00 1.835555e-26
1.790000e+00 1.825695e-26
1.800000e+00 1.767501e-26
1.809999e+00 1.658543e-26
1.820000e+00 1.497563e-26
1.830000e+00 1.284607e-26
1.840000e+00 1.021127e-26
1.849999e+00 7.100619e-27
1.860000e+00 3.558708e-27
1.870000e+00 -3.546928e-28
1.880000e+00 -4.565074e-27
1.889999e+00 -8.984021e-27
1.900000e+00 -1.351066e-26
1.910000e+00 -1.803334e-26
1.920000e+00 -2.243208e-26
1.929999e+00 -2.658107e-26
1.940000e+00 -3.035186e-26
1.950000e+00 -3.361656e-26
1.960000e+00 -3.625166e-26
1.969999e+00 -3.814158e-26
1.980000e+00 -3.918269e-26
1.990000e+00 -3.928698e-26
2.000000e+00 -3.838570e-26
2.010000e+00 -3.643286e-26
2.020000e+00 -3.340783e-26
2.030000e+00 -2.931821e-26
2.040000e+00 -2.420146e-26
2.050000e+00 -1.812591e-26
2.059999e+00 -1.119098e-26
2.070000e+00 -3.527079e-27
2.080000e+00 4.706489e-27
2.090000e+00 1.332400e-26
2.099999e+00 2.211654e-26
2.110000e+00 3.085634e-26
2.120000e+00 3.930249e-26
2.130000e+00 4.720673e-26
2.139999e+00 5.432006e-26
2.150000e+00 6.040046e-26
2.160000e+00 6.522016e-26
2.170000e+00 6.857307e-26
2.179999e+00 7.028300e-26
2.190000e+00 7.021104e-26
2.200000e+00 6.826142e-26
2.210000e+00 6.438827e-26
2.219999e+00 5.859966e-26
2.230000e+00 5.096169e-26
2.240000e+00 4.160014e-26
2.250000e+00 3.070041e-26
2.260000e+00 1.850662e-26
2.270000e+00 5.317211e-27
2.280000e+00 -8.520079e-27
2.290000e+00 -2.261657e-26
2.300000e+00 -3.655122e-26
2.309999e+00 -4.988264e-26
2.320000e+00 -6.216174e-26
2.330000e+00 -7.294554e-26
2.340000e+00 -8.181299e-26
2.349999e+00 -8.837987e-26
2.360000e+00 -9.231488e-26
2.370000e+00 -9.335333e-26
2.380000e+00 -9.131552e-26
2.389999e+00 -8.611407e-26
2.400000e+00 -7.776789e-26
2.410000e+00 -6.641020e-26
2.420000e+00 -5.229002e-26
2.429999e+00 -3.578124e-26
2.440000e+00 -1.736907e-26
2.450000e+00 2.346276e-27
2.460000e+00 2.266940e-26
2.469999e+00 4.281792e-26
2.480000e+00 6.194962e-26
2.490000e+00 7.918029e-26
2.500000e+00 9.361747e-26
2.510000e+00 1.043867e-25
2.520000e+00 1.106685e-25
2.530000e+00 1.117320e-25
2.540000e+00 1.069704e-25
2.550000e+00 9.593863e-26
2.559999e+00 7.838430e-26
2.570000e+00 5.427931e-26
2.580000e+00 2.384627e-26
2.590000e+00 -1.242273e-26
2.599999e+00 -5.375050e-26
2.610000e+00 -9.906674e-26
2.620000e+00 -1.470233e-25
2.630000e+00 -1.959917e-25
2.639999e+00 -2.441013e-25
2.650000e+00 -2.892742e-25
2.660000e+00 -3.292579e-25
2.670000e+00 -3.617040e-25
2.679999e+00 -3.842242e-25
2.690000e+00 -3.944677e-25
2.700000e+00 -3.902098e-25
2.710000e+00 -3.694465e-25
2.719999e+00 -3.304804e-25
2.730000e+00 -2.720260e-25
2.740000e+00 -1.932979e-25
2.750000e+00 -9.409913e-26
2.760000e+00 2.508973e-26
2.770000e+00 1.630486e-25
2.780000e+00 3.177645e-25
2.790000e+00 4.863954e-25
2.800000e+00 6.652518e-25
2.809999e+00 8.498198e-25
2.820000e+00 1.034793e-24
2.830000e+00 1.214137e-24
2.840000e+00 1.381197e-24
2.849999e+00 1.528839e-24
2.860000e+00 1.649576e-24
2.870000e+00 1.735803e-24
2.880000e+00 1.779973e-24
2.889999e+00 1.774881e-24
2.900000e+00 1.713865e-24
2.910000e+00 1.591161e-24
2.920000e+00 1.402103e-24
2.929999e+00 1.143461e-24
2.940000e+00 8.136790e-25
2.950000e+00 4.131368e-25
2.960000e+00 -5.560885e-26
2.969999e+00 -5.876541e-25
2.980000e+00 -1.175599e-24
2.990000e+00 -1.809471e-24
3.000000e+00 -2.476680e-24
3.010000e+00 -3.162097e-24
3.020000e+00 -3.848183e-24
3.030000e+00 -4.515159e-24
3.040000e+00 -5.141408e-24
3.050000e+00 -5.703784e-24
3.059999e+00 -6.178112e-24