-8.000000e+00 0.000000e+00
-7.990000e+00 0.000000e+00
-7.980000e+00 0.000000e+00
-7.970000e+00 0.000000e+00
-7.960000e+00 0.000000e+00
-7.950000e+00 0.000000e+00
-7.940000e+00 -1.079775e-32
-7.930000e+00 -1.413115e-31
-7.920000e+00 -9.963276e-31
-7.910000e+00 -5.020064e-30
-7.900000e+00 -2.024417e-29
-7.890000e+00 -6.941955e-29
-7.880000e+00 -2.101135e-28
-7.870000e+00 -5.755472e-28
-7.860000e+00 -1.452381e-27
-7.850000e+00 -3.421131e-27
-7.840000e+00 -7.598354e-27
-7.830000e+00 -1.603812e-26
-7.820000e+00 -3.237489e-26
-7.810000e+00 -6.282127e-26
-7.800000e+00 -1.176738e-25
-7.790000e+00 -2.135267e-25
-7.780000e+00 -3.764479e-25
-7.770000e+00 -6.464391e-25
-7.760000e+00 -1.083550e-24
-7.750000e+00 -1.776102e-24
-7.740000e+00 -2.851522e-24
-7.730000e+00 -4.490310e-24
-7.720000e+00 -6.943715e-24
-7.710000e+00 -1.055562e-23
-7.700000e+00 -1.578907e-23
-7.690000e+00 -2.325774e-23
-7.680000e+00 -3.376237e-23
-7.670000e+00 -4.833164e-23
-7.660000e+00 -6.826720e-23
-7.650000e+00 -9.519048e-23
-7.640000e+00 -1.310903e-22
-7.630000e+00 -1.783672e-22
-7.620000e+00 -2.398710e-22
-7.610000e+00 -3.189265e-22
-7.600000e+00 -4.193412e-22
-7.590000e+00 -5.453879e-22
-7.580000e+00 -7.017548e-22
-7.570000e+00 -8.934539e-22
-7.560000e+00 -1.125680e-21
-7.550000e+00 -1.403608e-21
-7.540000e+00 -1.732134e-21
-7.530000e+00 -2.115534e-21
-7.520000e+00 -2.557050e-21
-7.510000e+00 -3.058414e-21
-7.500000e+00 -3.619297e-21
-7.490000e+00 -4.236681e-21
-7.480000e+00 -4.904241e-21
-7.470000e+00 -5.611650e-21
-7.460000e+00 -6.343954e-21
-7.450000e+00 -7.080979e-21
-7.440000e+00 -7.796828e-21
-7.430000e+00 -8.459568e-21
-7.420000e+00 -9.031160e-21
-7.410000e+00 -9.467561e-21
-7.400000e+00 -9.719308e-21
-7.390000e+00 -9.732419e-21
-7.380000e+00 -9.449751e-21
-7.370000e+00 -8.812888e-21
-7.360000e+00 -7.764512e-21
-7.350000e+00 -6.251296e-21
-7.340000e+00 -4.227258e-21
-7.330000e+00 -1.657535e-21
-7.320000e+00 1.477494e-21
-7.310000e+00 5.178009e-21
-7.300000e+00 9.420429e-21
-7.290000e+00 1.415341e-20
-7.280000e+00 1.929429e-20
-7.270000e+00 2.472630e-20
-7.260000e+00 3.029683e-20
-7.250000e+00 3.581708e-20
-7.240000e+00 4.106337e-20
-7.230000e+00 4.578031e-20
-7.220000e+00 4.968636e-20
-7.210000e+00 5.248131e-20
-7.200000e+00 5.385676e-20
-7.190000e+00 5.350804e-20
-7.180000e+00 5.114930e-20
-7.170000e+00 4.652969e-20
-7.160000e+00 3.945140e-20
-7.150000e+00 2.978764e-20
-7.140000e+00 1.750176e-20
-7.130000e+00 2.664267e-21
-7.120000e+00 -1.453175e-20
-7.110000e+00 -3.375852e-20
-7.100000e+00 -5.454587e-20
-7.090000e+00 -7.627915e-20
-7.080000e+00 -9.820390e-20
-7.070000e+00 -1.194381e-19
-7.060000e+00 -1.389930e-19
-7.050000e+00 -1.558021e-19
-7.040000e+00 -1.687605e-19
-7.030000e+00 -1.767704e-19
-7.020000e+00 -1.787964e-19
-7.010000e+00 -1.739255e-19
-7.000000e+00 -1.614313e-19
-6.990000e+00 -1.408408e-19
-6.980000e+00 -1.119978e-19
-6.970000e+00 -7.512189e-20
-6.960000e+00 -3.085904e-20
-6.950000e+00 1.968223e-20
-6.940000e+00 7.491111e-20
-6.930000e+00 1.327566e-19
-6.920000e+00 1.906940e-19
-6.910000e+00 2.457994e-19
-6.900000e+00 2.948327e-19
-6.890000e+00 3.343529e-19
-6.880000e+00 3.608602e-19
-6.870000e+00 3.709677e-19
-6.860000e+00 3.615936e-19
-6.850000e+00 3.301755e-19
-6.840000e+00 2.748845e-19
-6.830000e+00 1.948530e-19
-6.820000e+00 9.037479e-20
-6.810000e+00 -3.690441e-20
-6.800000e+00 -1.838453e-19
-6.790000e+00 -3.457135e-19
-6.780000e+00 -5.161531e-19
-6.770000e+00 -6.872295e-19
-6.760000e+00 -8.495623e-19
-6.750000e+00 -9.925542e-19
-6.740000e+00 -1.104715e-18
-6.730000e+00 -1.174098e-18
-6.720000e+00 -1.188813e-18
-6.710000e+00 -1.137645e-18
-6.700000e+00 -1.010726e-18
-6.690000e+00 -8.002727e-19
-6.680000e+00 -5.013218e-19
-6.670000e+00 -1.124774e-19
-6.660000e+00 3.634086e-19
-6.650000e+00 9.186404e-19
-6.640000e+00 1.540221e-18
-6.630000e+00 2.209569e-18
-6.620000e+00 2.902458e-18
-6.610000e+00 3.589221e-18
-6.600000e+00 4.235245e-18
-6.590000e+00 4.801766e-18
-6.580000e+00 5.247025e-18
-6.570000e+00 5.527712e-18
-6.560000e+00 5.600751e-18
-6.550000e+00 5.425344e-18
-6.540000e+00 4.965233e-18
-6.530000e+00 4.191143e-18
-6.520000e+00 3.083255e-18
-6.510000e+00 1.633658e-18
-6.500000e+00 -1.513403e-19
-6.490000e+00 -2.249246e-18
-6.480000e+00 -4.619763e-18
-6.470000e+00 -7.203809e-18
-6.460000e+00 -9.923170e-18
-6.450000e+00 -1.268100e-17
-6.440000e+00 -1.536323e-17
-6.430000e+00 -1.784091e-17
-6.420000e+00 -1.997375e-17
-6.410000e+00 -2.161445e-17
-6.400000e+00 -2.261425e-17
-6.390000e+00 -2.282916e-17
-6.380000e+00 -2.212709e-17
-6.370000e+00 -2.039548e-17
-6.360000e+00 -1.754920e-17
-6.350000e+00 -1.353828e-17
-6.340000e+00 -8.355551e-18
-6.330000e+00 -2.043249e-18
-6.320000e+00 5.301354e-18
-6.310000e+00 1.352214e-17
-6.300000e+00 2.240203e-17
-6.290000e+00 3.166349e-17
-6.280000e+00 4.097152e-17
-6.270000e+00 4.993979e-17
-6.260000e+00 5.813961e-17
-6.250000e+00 6.511234e-17
-6.240000e+00 7.038469e-17
-6.230000e+00 7.348690e-17
-6.220000e+00 7.397305e-17
-6.210000e+00 7.144445e-17
-6.200000e+00 6.557276e-17
-6.190000e+00 5.612426e-17
-6.180000e+00 4.298397e-17
-6.170000e+00 2.617740e-17
-6.160000e+00 5.889596e-18
-6.150000e+00 -1.751931e-17
-6.140000e+00 -4.350462e-17
-6.130000e+00 -7.133306e-17
-6.120000e+00 -1.000867e-16
-6.110000e+00 -1.286753e-16
-6.100000e+00 -1.558571e-16
-6.090000e+00 -1.802691e-16
-6.080000e+00 -2.004667e-16
-6.070000e+00 -2.149726e-16
-6.060000e+00 -2.223330e-16
-6.050000e+00 -2.211816e-16
-6.040000e+00 -2.103087e-16
-6.030000e+00 -1.887341e-16
-6.020000e+00 -1.557785e-16
-6.010000e+00 -1.111355e-16
-6.000000e+00 -5.493792e-17
-5.990000e+00 1.218649e-17
-5.980000e+00 8.906972e-17
-5.970000e+00 1.739741e-16
-5.960000e+00 2.645817e-16
-5.950000e+00 3.580047e-16
-5.940000e+00 4.508222e-16
-5.930000e+00 5.391400e-16
-5.920000e+00 6.186790e-16
-5.910000e+00 6.848913e-16
-5.900000e+00 7.331010e-16
-5.890000e+00 7.586697e-16
-5.880000e+00 7.571833e-16
-5.870000e+00 7.246543e-16
-5.860000e+00 6.577362e-16
-5.850000e+00 5.539391e-16
-5.840000e+00 4.118443e-16
-5.830000e+00 2.313036e-16
-5.820000e+00 1.362099e-17
-5.810000e+00 -2.383033e-16
-5.800000e+00 -5.198637e-16
-5.790000e+00 -8.246940e-16
-5.780000e+00 -1.144668e-15
-5.770000e+00 -1.469969e-15
-5.760000e+00 -1.789225e-15
-5.750000e+00 -2.089726e-15
-5.740000e+00 -2.357715e-15
-5.730000e+00 -2.578748e-15
-5.720000e+00 -2.738138e-15
-5.710000e+00 -2.821447e-15
-5.700000e+00 -2.815051e-15
-5.690000e+00 -2.706719e-15
-5.680000e+00 -2.486238e-15
-5.670000e+00 -2.146032e-15
-5.660000e+00 -1.681764e-15
-5.650000e+00 -1.092887e-15
-5.640000e+00 -3.831538e-16
-5.630000e+00 4.390008e-16
-5.620000e+00 1.360162e-15
-5.610000e+00 2.361800e-15
-5.600000e+00 3.420272e-15
-5.590000e+00 4.507046e-15
-5.580000e+00 5.589058e-15
-5.570000e+00 6.629330e-15
-5.560000e+00 7.587747e-15
-5.550000e+00 8.422052e-15
-5.540000e+00 9.089035e-15
-5.530000e+00 9.545864e-15
-5.520000e+00 9.751573e-15
-5.510000e+00 9.668657e-15
-5.500000e+00 9.264693e-15
-5.490000e+00 8.514047e-15
-5.480000e+00 7.399431e-15
-5.470000e+00 5.913449e-15
-5.460000e+00 4.059932e-15
-5.450000e+00 1.855046e-15
-5.440000e+00 -6.718548e-16
-5.430000e+00 -3.477782e-15
-5.420000e+00 -6.506005e-15
-5.410000e+00 -9.686416e-15
-5.400000e+00 -1.293638e-14
-5.390000e+00 -1.616206e-14
-5.380000e+00 -1.926025e-14
-5.370000e+00 -2.212071e-14
-5.360000e+00 -2.462898e-14
-5.350000e+00 -2.666954e-14
-5.340000e+00 -2.812950e-14
-5.330000e+00 -2.890230e-14
-5.320000e+00 -2.889183e-14
-5.310000e+00 -2.801653e-14
-5.300000e+00 -2.621337e-14
-5.290000e+00 -2.344170e-14
-5.280000e+00 -1.968670e-14
-5.270000e+00 -1.496245e-14
-5.260000e+00 -9.314203e-15
-5.250000e+00 -2.820051e-15
-5.240000e+00 4.408369e-15
-5.230000e+00 1.222619e-14
-5.220000e+00 2.045663e-14
-5.210000e+00 2.889349e-14
-5.200000e+00 3.730475e-14
-5.190000e+00 4.543752e-14
-5.180000e+00 5.302361e-14
-5.170000e+00 5.978668e-14
-5.160000e+00 6.544990e-14
-5.150000e+00 6.974440e-14
-5.140000e+00 7.241815e-14
-5.130000e+00 7.324544e-14
-5.120000e+00 7.203582e-14
-5.110000e+00 6.864327e-14
-5.100000e+00 6.297445e-14
-5.090000e+00 5.499605e-14
-5.080000e+00 4.474115e-14
-5.070000e+00 3.231384e-14
-5.060000e+00 1.789213e-14
-5.050000e+00 1.728841e-15
-5.040000e+00 -1.584975e-14
-5.030000e+00 -3.444772e-14
-5.020000e+00 -5.360546e-14
-5.010000e+00 -7.280855e-14
-5.000000e+00 -9.149872e-14
-4.990000e+00 -1.090868e-13
-4.980000e+00 -1.249686e-13
-4.970000e+00 -1.385412e-13
-4.960000e+00 -1.492219e-13
-4.950000e+00 -1.564669e-13
-4.940000e+00 -1.597910e-13
-4.930000e+00 -1.587869e-13
-4.920000e+00 -1.531432e-13
-4.910000e+00 -1.426618e-13
-4.900000e+00 -1.272727e-13
-4.890000e+00 -1.070456e-13
-4.880000e+00 -8.219903e-14
-4.870000e+00 -5.310532e-14
-4.860000e+00 -2.029115e-14
-4.850000e+00 1.556654e-14
-4.840000e+00 5.364886e-14
-4.830000e+00 9.300928e-14
-4.820000e+00 1.325920e-13
-4.810000e+00 1.712548e-13
-4.800000e+00 2.077977e-13
-4.790000e+00 2.409930e-13
-4.780000e+00 2.696212e-13
-4.770000e+00 2.925067e-13
-4.760000e+00 3.085570e-13
-4.750000e+00 3.168004e-13
-4.740000e+00 3.164241e-13
-4.730000e+00 3.068099e-13
-4.720000e+00 2.875665e-13
-4.710000e+00 2.585570e-13
-4.700000e+00 2.199223e-13
-4.690000e+00 1.720958e-13
-4.680000e+00 1.158115e-13
-4.670000e+00 5.210441e-14
-4.660000e+00 -1.769967e-14
-4.650000e+00 -9.200238e-14
-4.640000e+00 -1.689604e-13
-4.630000e+00 -2.465235e-13
-4.620000e+00 -3.224794e-13
-4.610000e+00 -3.945080e-13
-4.600000e+00 -4.602424e-13
-4.590000e+00 -5.173343e-13
-4.580000e+00 -5.635243e-13
-4.570000e+00 -5.967138e-13
-4.560000e+00 -6.150372e-13
-4.550000e+00 -6.169319e-13
-4.540000e+00 -6.012048e-13
-4.530000e+00 -5.670893e-13
-4.520000e+00 -5.142986e-13
-4.510000e+00 -4.430629e-13
-4.500000e+00 -3.541583e-13
-4.490000e+00 -2.489185e-13
-4.480000e+00 -1.292336e-13
-4.470000e+00 2.470827e-15
-4.460000e+00 1.432691e-13
-4.450000e+00 2.897869e-13
-4.440000e+00 4.382721e-13
-4.430000e+00 5.846782e-13
-4.420000e+00 7.247635e-13
-4.410000e+00 8.542006e-13
-4.400000e+00 9.686946e-13
-4.390000e+00 1.064109e-12
-4.380000e+00 1.136596e-12
-4.370000e+00 1.182718e-12
-4.360000e+00 1.199576e-12
-4.350000e+00 1.184924e-12
-4.340000e+00 1.137266e-12
-4.330000e+00 1.055944e-12
-4.320000e+00 9.412085e-13
-4.310000e+00 7.942559e-13
-4.300000e+00 6.172502e-13
-4.290000e+00 4.133130e-13
-4.280000e+00 1.864869e-13
-4.270000e+00 -5.833161e-14
-4.260000e+00 -3.154869e-13
-4.250000e+00 -5.786875e-13
-4.240000e+00 -8.411526e-13
-4.230000e+00 -1.095785e-12
-4.220000e+00 -1.335355e-12
-4.210000e+00 -1.552708e-12
-4.200000e+00 -1.740973e-12
-4.190000e+00 -1.893779e-12
-4.180000e+00 -2.005452e-12
-4.170000e+00 -2.071234e-12
-4.160000e+00 -2.087448e-12
-4.150000e+00 -2.051671e-12
-4.140000e+00 -1.962847e-12
-4.130000e+00 -1.821395e-12
-4.120000e+00 -1.629254e-12
-4.110000e+00 -1.389896e-12
-4.100000e+00 -1.108291e-12
-4.090000e+00 -7.908148e-13
-4.080000e+00 -4.451229e-13
-4.070000e+00 -7.996530e-14
-4.060000e+00 2.950344e-13
-4.050000e+00 6.696422e-13
-4.040000e+00 1.033314e-12
-4.030000e+00 1.375511e-12
-4.020000e+00 1.686041e-12
-4.010000e+00 1.955407e-12
-4.000000e+00 2.175137e-12
-3.990000e+00 2.338129e-12
-3.980000e+00 2.438932e-12
-3.970000e+00 2.474020e-12
-3.960000e+00 2.441997e-12
-3.950000e+00 2.343756e-12
-3.940000e+00 2.182556e-12
-3.930000e+00 1.964049e-12
-3.920000e+00 1.696182e-12
-3.910000e+00 1.389066e-12
-3.900000e+00 1.054721e-12
-3.890000e+00 7.067619e-13
-3.880000e+00 3.599794e-13
-3.870000e+00 2.989399e-14
-3.860000e+00 -2.677977e-13
-3.850000e+00 -5.178011e-13
-3.840000e+00 -7.058281e-13
-3.830000e+00 -8.192244e-13
-3.820000e+00 -8.475965e-13
-3.810000e+00 -7.833944e-13
-3.800000e+00 -6.224608e-13
-3.790000e+00 -3.645028e-13
-3.780000e+00 -1.346751e-14
-3.770000e+00 4.221833e-13
-3.760000e+00 9.293407e-13
-3.750000e+00 1.490263e-12
-3.740000e+00 2.082756e-12
-3.730000e+00 2.680500e-12
-3.720000e+00 3.253563e-12
-3.710000e+00 3.769116e-12
-3.700000e+00 4.192255e-12
-3.690000e+00 4.487027e-12
-3.680000e+00 4.617574e-12
-3.670000e+00 4.549393e-12
-3.660000e+00 4.250673e-12
-3.650000e+00 3.693716e-12
-3.640000e+00 2.856312e-12
-3.630000e+00 1.723171e-12
-3.620000e+00 2.871692e-13
-3.610000e+00 -1.449401e-12
-3.600000e+00 -3.473838e-12
-3.590000e+00 -5.762227e-12
-3.580000e+00 -8.278862e-12
-3.570000e+00 -1.097602e-11
-3.560000e+00 -1.379402e-11
-3.550000e+00 -1.666168e-11
-3.540000e+00 -1.949712e-11
-3.530000e+00 -2.220903e-11
-3.520000e+00 -2.469822e-11
-3.510000e+00 -2.685972e-11
-3.500000e+00 -2.858513e-11
-3.490000e+00 -2.976529e-11
-3.480000e+00 -3.029339e-11
-3.470000e+00 -3.006815e-11
-3.460000e+00 -2.899731e-11
-3.450000e+00 -2.700104e-11
-3.440000e+00 -2.401562e-11
-3.430000e+00 -1.999669e-11
-3.420000e+00 -1.492270e-11
-3.410000e+00 -8.797641e-12
-3.400000e+00 -1.653786e-12
-3.390000e+00 6.446354e-12
-3.380000e+00 1.540859e-11
-3.370000e+00 2.510615e-11
-3.360000e+00 3.537992e-11
-3.350000e+00 4.603894e-11
-3.340000e+00 5.686245e-11
-3.330000e+00 6.760237e-11
-3.320000e+00 7.798672e-11
-3.310000e+00 8.772447e-11
-3.300000e+00 9.651046e-11
-3.290000e+00 1.040320e-10
-3.280000e+00 1.099753e-10
-3.270000e+00 1.140333e-10
-3.260000e+00 1.159139e-10
-3.250000e+00 1.153478e-10
-3.240000e+00 1.120975e-10
-3.230000e+00 1.059653e-10
-3.220000e+00 9.680180e-11
-3.210000e+00 8.451380e-11
-3.200000e+00 6.907115e-11
-3.190000e+00 5.051280e-11
-3.180000e+00 2.895223e-11
-3.170000e+00 4.580995e-12
-3.160000e+00 -2.232902e-11
-3.150000e+00 -5.142515e-11
-3.140000e+00 -8.227501e-11
-3.130000e+00 -1.143696e-10
-3.120000e+00 -1.471288e-10
-3.110000e+00 -1.799082e-10
-3.100000e+00 -2.120078e-10
-3.090000e+00 -2.426840e-10
-3.080000e+00 -2.711614e-10
-3.070000e+00 -2.966477e-10
-3.060000e+00 -3.183493e-10
-3.050000e+00 -3.354887e-10
-3.040000e+00 -3.473212e-10
-3.030000e+00 -3.531547e-10
-3.020000e+00 -3.523666e-10
-3.010000e+00 -3.444234e-10
-3.000000e+00 -3.288970e-10
-2.990000e+00 -3.054819e-10
-2.980000e+00 -2.740097e-10
-2.970000e+00 -2.344621e-10
-2.960000e+00 -1.869817e-10
-2.950000e+00 -1.318797e-10
-2.940000e+00 -6.964106e-11
-2.930000e+00 -9.258892e-13
-2.920000e+00 7.343210e-11
-2.910000e+00 1.524314e-10
-2.900000e+00 2.349118e-10
-2.890000e+00 3.195672e-10
-2.880000e+00 4.049625e-10
-2.870000e+00 4.895542e-10
-2.860000e+00 5.717122e-10
-2.850000e+00 6.497483e-10
-2.840000e+00 7.219430e-10
-2.830000e+00 7.865789e-10
-2.820000e+00 8.419700e-10
-2.810000e+00 8.864982e-10
-2.800000e+00 9.186445e-10
-2.790000e+00 9.370250e-10
-2.780000e+00 9.404192e-10
-2.770000e+00 9.278063e-10
-2.760000e+00 8.983868e-10
-2.750000e+00 8.516128e-10
-2.740000e+00 7.872073e-10
-2.730000e+00 7.051799e-10
-2.720000e+00 6.058420e-10
-2.710000e+00 4.898131e-10
-2.700000e+00 3.580224e-10
-2.690000e+00 2.117039e-10
-2.680000e+00 5.238966e-11
-2.670000e+00 -1.181069e-10
-2.660000e+00 -2.977119e-10
-2.650000e+00 -4.841155e-10
-2.640000e+00 -6.748036e-10
-2.630000e+00 -8.670922e-10
-2.620000e+00 -1.058167e-09
-2.610000e+00 -1.245125e-09
-2.600000e+00 -1.425017e-09
-2.590000e+00 -1.594896e-09
-2.580000e+00 -1.751861e-09
-2.570000e+00 -1.893103e-09
-2.560000e+00 -2.015953e-09
-2.550000e+00 -2.117921e-09
-2.540000e+00 -2.196734e-09
-2.530000e+00 -2.250378e-09
-2.520000e+00 -2.277121e-09
-2.510000e+00 -2.275550e-09
-2.500000e+00 -2.244582e-09
-2.490000e+00 -2.183480e-09
-2.480000e+00 -2.091871e-09
-2.470000e+00 -1.969735e-09
-2.460000e+00 -1.817406e-09
-2.450000e+00 -1.635568e-09
-2.440000e+00 -1.425232e-09
-2.430000e+00 -1.187713e-09
-2.420000e+00 -9.246134e-10
-2.410000e+00 -6.377851e-10
-2.400000e+00 -3.293032e-10
-2.390000e+00 -1.424686e-12
-2.380000e+00 3.434388e-10
-2.370000e+00 7.027625e-10
-2.360000e+00 1.073941e-09
-2.350000e+00 1.454316e-09
-2.340000e+00 1.841213e-09
-2.330000e+00 2.231960e-09
-2.320000e+00 2.623910e-09
-2.310000e+00 3.014449e-09
-2.300000e+00 3.401014e-09
-2.290000e+00 3.781082e-09
-2.280000e+00 4.152174e-09
-2.270000e+00 4.511825e-09
-2.260000e+00 4.857586e-09
-2.250000e+00 5.186974e-09
-2.240000e+00 5.497447e-09
-2.230000e+00 5.786365e-09
-2.220000e+00 6.050935e-09
-2.210000e+00 6.288178e-09
-2.200000e+00 6.494847e-09
-2.190000e+00 6.667405e-09
-2.180000e+00 6.801944e-09
-2.170000e+00 6.894147e-09
-2.160000e+00 6.939221e-09
-2.150000e+00 6.931860e-09
-2.140000e+00 6.866190e-09
-2.130000e+00 6.735737e-09
-2.120000e+00 6.533416e-09
-2.110000e+00 6.251449e-09
-2.100000e+00 5.881430e-09
-2.090000e+00 5.414255e-09
-2.080000e+00 4.840210e-09
-2.070000e+00 4.148875e-09
-2.060000e+00 3.329282e-09
-2.050000e+00 2.369881e-09
-2.040000e+00 1.258600e-09
-2.030000e+00 -1.706071e-11
-2.020000e+00 -1.469977e-09
-2.010000e+00 -3.113312e-09
-2.000000e+00 -4.960424e-09
-1.990000e+00 -7.024741e-09
-1.980000e+00 -9.319735e-09
-1.970000e+00 -1.185872e-08
-1.960000e+00 -1.465481e-08
-1.950000e+00 -1.772078e-08
-1.940000e+00 -2.106896e-08
-1.930000e+00 -2.471115e-08
-1.920000e+00 -2.865849e-08
-1.910000e+00 -3.292140e-08
-1.900000e+00 -3.750940e-08
-1.890000e+00 -4.243123e-08
-1.880000e+00 -4.769458e-08
-1.870000e+00 -5.330613e-08
-1.860000e+00 -5.927146e-08
-1.850000e+00 -6.559510e-08
-1.840000e+00 -7.228039e-08
-1.830000e+00 -7.932956e-08
-1.820000e+00 -8.674376e-08
-1.810000e+00 -9.452295e-08
-1.800000e+00 -1.026661e-07
-1.790000e+00 -1.111712e-07
-1.780000e+00 -1.200349e-07
-1.770000e+00 -1.292535e-07
-1.760000e+00 -1.388221e-07
-1.750000e+00 -1.487351e-07
-1.740000e+00 -1.589862e-07
-1.730000e+00 -1.695688e-07
-1.720000e+00 -1.804756e-07
-1.710000e+00 -1.916988e-07
-1.700000e+00 -2.032307e-07
-1.690000e+00 -2.150633e-07
-1.680000e+00 -2.271887e-07
-1.670000e+00 -2.395989e-07
-1.660000e+00 -2.522865e-07
-1.650000e+00 -2.652437e-07
-1.640000e+00 -2.784639e-07
-1.630000e+00 -2.919407e-07
-1.620000e+00 -3.056687e-07
-1.610000e+00 -3.196422e-07
-1.600000e+00 -3.338578e-07
-1.590000e+00 -3.483122e-07
-1.580000e+00 -3.630030e-07
-1.570000e+00 -3.779296e-07
-1.560000e+00 -3.930917e-07
-1.550000e+00 -4.084911e-07
-1.540000e+00 -4.241309e-07
-1.530000e+00 -4.400149e-07
-1.520000e+00 -4.561490e-07
-1.510000e+00 -4.725402e-07
-1.500000e+00 -4.891975e-07
-1.490000e+00 -5.061312e-07
-1.480000e+00 -5.233535e-07
-1.470000e+00 -5.408779e-07
-1.460000e+00 -5.587199e-07
-1.450000e+00 -5.768965e-07
-1.440000e+00 -5.954262e-07
-1.430000e+00 -6.143301e-07
-1.420000e+00 -6.336296e-07
-1.410000e+00 -6.533494e-07
-1.400000e+00 -6.735143e-07
-1.390000e+00 -6.941513e-07
-1.380000e+00 -7.152892e-07
-1.370000e+00 -7.369571e-07
-1.360000e+00 -7.591877e-07
-1.350000e+00 -7.820125e-07
-1.340000e+00 -8.054663e-07
-1.330000e+00 -8.295837e-07
-1.320000e+00 -8.544004e-07
-1.310000e+00 -8.799539e-07
-1.300000e+00 -9.062819e-07
-1.290000e+00 -9.334225e-07
-1.280000e+00 -9.614147e-07
-1.270000e+00 -9.902986e-07
-1.260000e+00 -1.020113e-06
-1.250000e+00 -1.050898e-06
-1.240000e+00 -1.082694e-06
-1.230000e+00 -1.115541e-06
-1.220000e+00 -1.149479e-06
-1.210000e+00 -1.184546e-06
-1.200000e+00 -1.220783e-06
-1.190000e+00 -1.258226e-06
-1.180000e+00 -1.296916e-06
-1.170000e+00 -1.336889e-06
-1.160000e+00 -1.378181e-06
-1.150000e+00 -1.420830e-06
-1.140000e+00 -1.464870e-06
-1.130000e+00 -1.510337e-06
-1.120000e+00 -1.557263e-06
-1.110000e+00 -1.605682e-06
-1.100000e+00 -1.655627e-06
-1.090000e+00 -1.707130e-06
-1.080000e+00 -1.760221e-06
-1.070000e+00 -1.814932e-06
-1.060000e+00 -1.871294e-06
-1.050000e+00 -1.929335e-06
-1.040000e+00 -1.989087e-06
-1.030000e+00 -2.050581e-06
-1.020000e+00 -2.113845e-06
-1.010000e+00 -2.178909e-06
-1.000000e+00 -2.245808e-06
-9.900002e-01 -2.314571e-06
-9.800000e-01 -2.385233e-06
-9.700003e-01 -2.457823e-06
-9.600000e-01 -2.532381e-06
-9.500003e-01 -2.608941e-06
-9.400001e-01 -2.687541e-06
-9.300003e-01 -2.768222e-06
-9.200001e-01 -2.851024e-06
-9.100003e-01 -2.935994e-06
-9.000001e-01 -3.023176e-06
-8.900003e-01 -3.112619e-06
-8.800001e-01 -3.204374e-06
-8.700004e-01 -3.298496e-06
-8.600001e-01 -3.395044e-06
-8.500004e-01 -3.494074e-06
-8.400002e-01 -3.595653e-06
-8.299999e-01 -3.699846e-06
-8.200002e-01 -3.806720e-06
-8.099999e-01 -3.916354e-06
-8.000002e-01 -4.028818e-06
-7.900000e-01 -4.144194e-06
-7.800002e-01 -4.262562e-06
-7.700000e-01 -4.384011e-06
-7.600002e-01 -4.508628e-06
-7.500000e-01 -4.636502e-06
-7.400002e-01 -4.767732e-06
-7.300000e-01 -4.902409e-06
-7.200003e-01 -5.040637e-06
-7.100000e-01 -5.182515e-06
-7.000003e-01 -5.328152e-06
-6.900001e-01 -5.477647e-06
-6.800003e-01 -5.631115e-06
-6.700001e-01 -5.788664e-06
-6.600003e-01 -5.950401e-06
-6.500001e-01 -6.116445e-06
-6.400003e-01 -6.286911e-06
-6.300001e-01 -6.461906e-06
-6.200004e-01 -6.641554e-06
-6.100001e-01 -6.825968e-06
-6.000004e-01 -7.015270e-06
-5.900002e-01 -7.209574e-06
-5.800004e-01 -7.409005e-06
-5.700002e-01 -7.613685e-06
-5.599999e-01 -7.823728e-06
-5.500002e-01 -8.039260e-06
-5.400000e-01 -8.260408e-06
-5.300002e-01 -8.487287e-06
-5.200000e-01 -8.720033e-06
-5.100002e-01 -8.958767e-06
-5.000000e-01 -9.203620e-06
-4.900002e-01 -9.454721e-06
-4.800000e-01 -9.712207e-06
-4.700003e-01 -9.976205e-06
-4.600000e-01 -1.024686e-05
-4.500003e-01 -1.052432e-05
-4.400001e-01 -1.080870e-05
-4.300003e-01 -1.110018e-05
-4.200001e-01 -1.139890e-05
-4.100003e-01 -1.170501e-05
-4.000001e-01 -1.201867e-05
-3.900003e-01 -1.234005e-05
-3.800001e-01 -1.266932e-05
-3.700004e-01 -1.300664e-05
-3.600001e-01 -1.335221e-05
-3.500004e-01 -1.370620e-05
-3.400002e-01 -1.406880e-05
-3.300004e-01 -1.444020e-05
-3.200002e-01 -1.482062e-05
-3.099999e-01 -1.521025e-05
-3.000002e-01 -1.560930e-05
-2.900000e-01 -1.601800e-05
-2.800002e-01 -1.643656e-05
-2.700000e-01 -1.686520e-05
-2.600002e-01 -1.730417e-05
-2.500000e-01 -1.775369e-05
-2.400002e-01 -1.821401e-05
-2.300000e-01 -1.868536e-05
-2.200003e-01 -1.916802e-05
-2.100000e-01 -1.966221e-05
-2.000003e-01 -2.016821e-05
-1.900001e-01 -2.068627e-05
-1.800003e-01 -2.121666e-05
-1.700001e-01 -2.175963e-05
-1.600003e-01 -2.231548e-05
-1.500001e-01 -2.288445e-05
-1.400003e-01 -2.346685e-05
-1.300001e-01 -2.406293e-05
-1.200004e-01 -2.467299e-05
-1.100001e-01 -2.529731e-05
-1.000004e-01 -2.593618e-05
-9.000015e-02 -2.658988e-05
-8.000040e-02 -2.725871e-05
-7.000017e-02 -2.794298e-05
-5.999994e-02 -2.864298e-05
-5.000019e-02 -2.935903e-05
-3.999996e-02 -3.009141e-05
-3.000021e-02 -3.084047e-05
-1.999998e-02 -3.160652e-05
-1.000023e-02 -3.238987e-05
0.000000e+00 -3.319087e-05
1.000023e-02 -3.400984e-05
1.999950e-02 -3.484712e-05
2.999973e-02 -3.570309e-05
3.999996e-02 -3.657808e-05
5.000019e-02 -3.747247e-05
5.999947e-02 -3.838660e-05
6.999969e-02 -3.932088e-05
7.999992e-02 -4.027571e-05
9.000015e-02 -4.125149e-05
9.999943e-02 -4.224858e-05
1.099997e-01 -4.326742e-05
1.199999e-01 -4.430845e-05
1.300001e-01 -4.537209e-05
1.399994e-01 -4.645882e-05
1.499996e-01 -4.756902e-05
1.599998e-01 -4.870323e-05
1.700001e-01 -4.986186e-05
1.799994e-01 -5.104542e-05
1.899996e-01 -5.225444e-05
1.999998e-01 -5.348940e-05
2.100000e-01 -5.475078e-05
2.200003e-01 -5.603913e-05
2.299995e-01 -5.735497e-05
2.399998e-01 -5.869887e-05
2.500000e-01 -6.007134e-05
2.600002e-01 -6.147295e-05
2.699995e-01 -6.290427e-05
2.799997e-01 -6.436587e-05
2.900000e-01 -6.585832e-05
3.000002e-01 -6.738220e-05
3.099995e-01 -6.893816e-05
3.199997e-01 -7.052672e-05
3.299999e-01 -7.214852e-05
3.400002e-01 -7.380421e-05
3.499994e-01 -7.549435e-05
3.599997e-01 -7.721959e-05
3.699999e-01 -7.898055e-05
3.800001e-01 -8.077791e-05
3.899994e-01 -8.261223e-05
3.999996e-01 -8.448424e-05
4.099998e-01 -8.639454e-05
4.200001e-01 -8.834382e-05
4.299994e-01 -9.033268e-05
4.399996e-01 -9.236184e-05
4.499998e-01 -9.443196e-05
4.600000e-01 -9.654373e-05
4.700003e-01 -9.869781e-05
4.799995e-01 -1.008949e-04
4.899998e-01 -1.031357e-04
5.000000e-01 -1.054209e-04
5.100002e-01 -1.077512e-04
5.199995e-01 -1.101274e-04
5.299997e-01 -1.125502e-04
5.400000e-01 -1.150202e-04
5.500002e-01 -1.175383e-04
5.599995e-01 -1.201052e-04
5.699997e-01 -1.227217e-04
5.799999e-01 -1.253887e-04
5.900002e-01 -1.281067e-04
5.999994e-01 -1.308768e-04
6.099997e-01 -1.336996e-04
6.199999e-01 -1.365760e-04
6.300001e-01 -1.395068e-04
6.399994e-01 -1.424931e-04
6.499996e-01 -1.455354e-04
6.599998e-01 -1.486349e-04
6.700001e-01 -1.517923e-04
6.799994e-01 -1.550087e-04
6.899996e-01 -1.582848e-04
6.999998e-01 -1.616217e-04
7.100000e-01 -1.650202e-04
7.200003e-01 -1.684815e-04
7.299995e-01 -1.720065e-04
7.399998e-01 -1.755960e-04
7.500000e-01 -1.792512e-04
7.600002e-01 -1.829731e-04
7.699995e-01 -1.867628e-04
7.799997e-01 -1.906211e-04
7.900000e-01 -1.945492e-04
8.000002e-01 -1.985482e-04
8.099995e-01 -2.026191e-04
8.199997e-01 -2.067629e-04
8.299999e-01 -2.109809e-04
8.400002e-01 -2.152740e-04
8.499994e-01 -2.196433e-04
8.599997e-01 -2.240901e-04
8.699999e-01 -2.286153e-04
8.800001e-01 -2.332201e-04
8.899994e-01 -2.379057e-04
8.999996e-01 -2.426731e-04
9.099998e-01 -2.475235e-04
9.200001e-01 -2.524581e-04
9.299994e-01 -2.574779e-04
9.399996e-01 -2.625842e-04
9.499998e-01 -2.677783e-04
9.600000e-01 -2.730610e-04
9.700003e-01 -2.784336e-04
9.799995e-01 -2.838975e-04
9.899998e-01 -2.894538e-04
1.000000e+00 -2.951035e-04
1.010000e+00 -3.008482e-04
1.020000e+00 -3.066887e-04
1.030000e+00 -3.126261e-04
1.040000e+00 -3.186624e-04
1.050000e+00 -3.247982e-04
1.059999e+00 -3.310350e-04
1.070000e+00 -3.373740e-04
1.080000e+00 -3.438164e-04
1.090000e+00 -3.503634e-04
1.099999e+00 -3.570166e-04
1.110000e+00 -3.637770e-04
1.120000e+00 -3.706461e-04
1.130000e+00 -3.776251e-04
1.139999e+00 -3.847153e-04
1.150000e+00 -3.919180e-04
1.160000e+00 -3.992346e-04
1.170000e+00 -4.066663e-04
1.179999e+00 -4.142147e-04
1.190000e+00 -4.218809e-04
1.200000e+00 -4.296664e-04
1.210000e+00 -4.375725e-04
1.220000e+00 -4.456005e-04
1.230000e+00 -4.537518e-04
1.240000e+00 -4.620279e-04
1.250000e+00 -4.704301e-04
1.260000e+00 -4.789596e-04
1.270000e+00 -4.876180e-04
1.280000e+00 -4.964063e-04
1.290000e+00 -5.053266e-04
1.300000e+00 -5.143796e-04
1.309999e+00 -5.235672e-04
1.320000e+00 -5.328903e-04
1.330000e+00 -5.423508e-04
1.340000e+00 -5.519497e-04
1.349999e+00 -5.616886e-04
1.360000e+00 -5.715690e-04
1.370000e+00 -5.815919e-04
1.380000e+00 -5.917590e-04
1.389999e+00 -6.020719e-04
1.400000e+00 -6.125318e-04
1.410000e+00 -6.231400e-04
1.420000e+00 -6.338978e-04
1.429999e+00 -6.448073e-04
1.440000e+00 -6.558691e-04
1.450000e+00 -6.670853e-04
1.460000e+00 -6.784566e-04
1.469999e+00 -6.899851e-04
1.480000e+00 -7.016718e-04
1.490000e+00 -7.135185e-04
1.500000e+00 -7.255261e-04
1.510000e+00 -7.376967e-04
1.520000e+00 -7.500306e-04
1.530000e+00 -7.625299e-04
1.540000e+00 -7.751961e-04
1.550000e+00 -7.880305e-04
1.559999e+00 -8.010344e-04
1.570000e+00 -8.142088e-04
1.580000e+00 -8.275556e-04
1.590000e+00 -8.410758e-04
1.599999e+00 -8.547707e-04
1.610000e+00 -8.686419e-04
1.620000e+00 -8.826905e-04
1.630000e+00 -8.969177e-04
1.639999e+00 -9.113252e-04
1.650000e+00 -9.259135e-04
1.660000e+00 -9.406847e-04
1.670000e+00 -9.556391e-04
1.679999e+00 -9.707786e-04
1.690000e+00 -9.861045e-04
1.700000e+00 -1.001618e-03
1.710000e+00 -1.017319e-03
1.719999e+00 -1.033210e-03
1.730000e+00 -1.049292e-03
1.740000e+00 -1.065566e-03
1.750000e+00 -1.082032e-03
1.760000e+00 -1.098694e-03
1.770000e+00 -1.115550e-03
1.780000e+00 -1.132602e-03
1.790000e+00 -1.149851e-03
1.800000e+00 -1.167298e-03
1.809999e+00 -1.184945e-03
1.820000e+00 -1.202792e-03
1.830000e+00 -1.220841e-03
1.840000e+00 -1.239091e-03
1.849999e+00 -1.257544e-03
1.860000e+00 -1.276201e-03
1.870000e+00 -1.295063e-03
1.880000e+00 -1.314130e-03
1.889999e+00 -1.333404e-03
1.900000e+00 -1.352885e-03
1.910000e+00 -1.372574e-03
1.920000e+00 -1.392471e-03
1.929999e+00 -1.412579e-03
1.940000e+00 -1.432896e-03
1.950000e+00 -1.453424e-03
1.960000e+00 -1.474163e-03
1.969999e+00 -1.495114e-03
1.980000e+00 -1.516277e-03
1.990000e+00 -1.537655e-03
2.000000e+00 -1.559245e-03
2.010000e+00 -1.581049e-03
2.020000e+00 -1.603068e-03
2.030000e+00 -1.625300e-03
2.040000e+00 -1.647749e-03
2.050000e+00 -1.670412e-03
2.059999e+00 -1.693292e-03
2.070000e+00 -1.716387e-03
2.080000e+00 -1.739698e-03
2.090000e+00 -1.763225e-03
2.099999e+00 -1.786969e-03
2.110000e+00 -1.810929e-03
2.120000e+00 -1.835106e-03
2.130000e+00 -1.859498e-03
2.139999e+00 -1.884107e-03
2.150000e+00 -1.908932e-03
2.160000e+00 -1.933973e-03
2.170000e+00 -1.959230e-03
2.179999e+00 -1.984702e-03
2.190000e+00 -2.010390e-03
2.200000e+00 -2.036294e-03
2.210000e+00 -2.062410e-03
2.219999e+00 -2.088741e-03
2.230000e+00 -2.115287e-03
2.240000e+00 -2.142044e-03
2.250000e+00 -2.169014e-03
2.260000e+00 -2.196196e-03
2.270000e+00 -2.223588e-03
2.280000e+00 -2.251191e-03
2.290000e+00 -2.279003e-03
2.300000e+00 -2.307025e-03
2.309999e+00 -2.335253e-03
2.320000e+00 -2.363688e-03
2.330000e+00 -2.392329e-03
2.340000e+00 -2.421174e-03
2.349999e+00 -2.450223e-03
2.360000e+00 -2.479472e-03
2.370000e+00 -2.508922e-03
2.380000e+00 -2.538573e-03
2.389999e+00 -2.568421e-03
2.400000e+00 -2.598465e-03
2.410000e+00 -2.628704e-03
2.420000e+00 -2.659137e-03
2.429999e+00 -2.689761e-03
2.440000e+00 -2.720573e-03
2.450000e+00 -2.751576e-03
2.460000e+00 -2.782762e-03
2.469999e+00 -2.814134e-03
2.480000e+00 -2.845689e-03
2.490000e+00 -2.877423e-03
2.500000e+00 -2.909334e-03
2.510000e+00 -2.941421e-03
2.520000e+00 -2.973682e-03
2.530000e+00 -3.006113e-03
2.540000e+00 -3.038715e-03
2.550000e+00 -3.071481e-03
2.559999e+00 -3.104411e-03
2.570000e+00 -3.137503e-03
2.580000e+00 -3.170752e-03
2.590000e+00 -3.204157e-03
2.599999e+00 -3.237714e-03
2.610000e+00 -3.271421e-03
2.620000e+00 -3.305274e-03
2.630000e+00 -3.339272e-03
2.639999e+00 -3.373409e-03
2.650000e+00 -3.407683e-03
2.660000e+00 -3.442092e-03
2.670000e+00 -3.476631e-03
2.679999e+00 -3.511298e-03
2.690000e+00 -3.546088e-03
2.700000e+00 -3.580998e-03
2.710000e+00 -3.616023e-03
2.719999e+00 -3.651161e-03
2.730000e+00 -3.686408e-03
2.740000e+00 -3.721760e-03
2.750000e+00 -3.757212e-03
2.760000e+00 -3.792760e-03
2.770000e+00 -3.828402e-03
2.780000e+00 -3.864131e-03
2.790000e+00 -3.899943e-03
2.800000e+00 -3.935835e-03
2.809999e+00 -3.971804e-03
2.820000e+00 -4.007839e-03
2.830000e+00 -4.043943e-03
2.840000e+00 -4.080107e-03
2.849999e+00 -4.116329e-03
2.860000e+00 -4.152600e-03
2.870000e+00 -4.188918e-03
2.880000e+00 -4.225279e-03
2.889999e+00 -4.261675e-03
2.900000e+00 -4.298102e-03
2.910000e+00 -4.334555e-03