-8.000000e+00 0.000000e+00
-7.990000e+00 0.000000e+00
-7.980000e+00 0.000000e+00
-7.970000e+00 0.000000e+00
-7.960000e+00 0.000000e+00
-7.950000e+00 0.000000e+00
-7.940000e+00 0.000000e+00
-7.930000e+00 0.000000e+00
-7.920000e+00 0.000000e+00
-7.910000e+00 0.000000e+00
-7.900000e+00 0.000000e+00
-7.890000e+00 0.000000e+00
-7.880000e+00 0.000000e+00
-7.870000e+00 0.000000e+00
-7.860000e+00 0.000000e+00
-7.850000e+00 0.000000e+00
-7.840000e+00 0.000000e+00
-7.830000e+00 0.000000e+00
-7.820000e+00 0.000000e+00
-7.810000e+00 0.000000e+00
-7.800000e+00 0.000000e+00
-7.790000e+00 0.000000e+00
-7.780000e+00 0.000000e+00
-7.770000e+00 0.000000e+00
-7.760000e+00 0.000000e+00
-7.750000e+00 0.000000e+00
-7.740000e+00 0.000000e+00
-7.730000e+00 0.000000e+00
-7.720000e+00 0.000000e+00
-7.710000e+00 0.000000e+00
-7.700000e+00 0.000000e+00
-7.690000e+00 0.000000e+00
-7.680000e+00 0.000000e+00
-7.670000e+00 0.000000e+00
-7.660000e+00 0.000000e+00
-7.650000e+00 0.000000e+00
-7.640000e+00 0.000000e+00
-7.630000e+00 0.000000e+00
-7.620000e+00 0.000000e+00
-7.610000e+00 0.000000e+00
-7.600000e+00 0.000000e+00
-7.590000e+00 0.000000e+00
-7.580000e+00 0.000000e+00
-7.570000e+00 0.000000e+00
-7.560000e+00 0.000000e+00
-7.550000e+00 0.000000e+00
-7.540000e+00 0.000000e+00
-7.530000e+00 0.000000e+00
-7.520000e+00 0.000000e+00
-7.510000e+00 0.000000e+00
-7.500000e+00 0.000000e+00
-7.490000e+00 0.000000e+00
-7.480000e+00 0.000000e+00
-7.470000e+00 0.000000e+00
-7.460000e+00 0.000000e+00
-7.450000e+00 0.000000e+00
-7.440000e+00 0.000000e+00
-7.430000e+00 0.000000e+00
-7.420000e+00 0.000000e+00
-7.410000e+00 0.000000e+00
-7.400000e+00 0.000000e+00
-7.390000e+00 0.000000e+00
-7.380000e+00 0.000000e+00
-7.370000e+00 0.000000e+00
-7.360000e+00 0.000000e+00
-7.350000e+00 0.000000e+00
-7.340000e+00 0.000000e+00
-7.330000e+00 0.000000e+00
-7.320000e+00 0.000000e+00
-7.310000e+00 0.000000e+00
-7.300000e+00 0.000000e+00
-7.290000e+00 0.000000e+00
-7.280000e+00 0.000000e+00
-7.270000e+00 0.000000e+00
-7.260000e+00 0.000000e+00
-7.250000e+00 0.000000e+00
-7.240000e+00 0.000000e+00
-7.230000e+00 0.000000e+00
-7.220000e+00 0.000000e+00
-7.210000e+00 0.000000e+00
-7.200000e+00 0.000000e+00
-7.190000e+00 0.000000e+00
-7.180000e+00 0.000000e+00
-7.170000e+00 0.000000e+00
-7.160000e+00 0.000000e+00
-7.150000e+00 0.000000e+00
-7.140000e+00 0.000000e+00
-7.130000e+00 0.000000e+00
-7.120000e+00 0.000000e+00
-7.110000e+00 0.000000e+00
-7.100000e+00 0.000000e+00
-7.090000e+00 0.000000e+00
-7.080000e+00 0.000000e+00
-7.070000e+00 0.000000e+00
-7.060000e+00 0.000000e+00
-7.050000e+00 0.000000e+00
-7.040000e+00 0.000000e+00
-7.030000e+00 0.000000e+00
-7.020000e+00 0.000000e+00
-7.010000e+00 0.000000e+00
-7.000000e+00 0.000000e+00
-6.990000e+00 0.000000e+00
-6.980000e+00 0.000000e+00
-6.970000e+00 0.000000e+00
-6.960000e+00 0.000000e+00
-6.950000e+00 0.000000e+00
-6.940000e+00 0.000000e+00
-6.930000e+00 0.000000e+00
-6.920000e+00 0.000000e+00
-6.910000e+00 0.000000e+00
-6.900000e+00 0.000000e+00
-6.890000e+00 0.000000e+00
-6.880000e+00 0.000000e+00
-6.870000e+00 0.000000e+00
-6.860000e+00 0.000000e+00
-6.850000e+00 0.000000e+00
-6.840000e+00 0.000000e+00
-6.830000e+00 0.000000e+00
-6.820000e+00 0.000000e+00
-6.810000e+00 0.000000e+00
-6.800000e+00 0.000000e+00
-6.790000e+00 0.000000e+00
-6.780000e+00 0.000000e+00
-6.770000e+00 0.000000e+00
-6.760000e+00 0.000000e+00
-6.750000e+00 0.000000e+00
-6.740000e+00 0.000000e+00
-6.730000e+00 0.000000e+00
-6.720000e+00 0.000000e+00
-6.710000e+00 0.000000e+00
-6.700000e+00 0.000000e+00
-6.690000e+00 0.000000e+00
-6.680000e+00 0.000000e+00
-6.670000e+00 0.000000e+00
-6.660000e+00 0.000000e+00
-6.650000e+00 0.000000e+00
-6.640000e+00 0.000000e+00
-6.630000e+00 0.000000e+00
-6.620000e+00 0.000000e+00
-6.610000e+00 0.000000e+00
-6.600000e+00 0.000000e+00
-6.590000e+00 0.000000e+00
-6.580000e+00 0.000000e+00
-6.570000e+00 0.000000e+00
-6.560000e+00 0.000000e+00
-6.550000e+00 0.000000e+00
-6.540000e+00 0.000000e+00
-6.530000e+00 0.000000e+00
-6.520000e+00 0.000000e+00
-6.510000e+00 0.000000e+00
-6.500000e+00 0.000000e+00
-6.490000e+00 0.000000e+00
-6.480000e+00 0.000000e+00
-6.470000e+00 0.000000e+00
-6.460000e+00 0.000000e+00
-6.450000e+00 0.000000e+00
-6.440000e+00 0.000000e+00
-6.430000e+00 0.000000e+00
-6.420000e+00 0.000000e+00
-6.410000e+00 0.000000e+00
-6.400000e+00 0.000000e+00
-6.390000e+00 0.000000e+00
-6.380000e+00 0.000000e+00
-6.370000e+00 0.000000e+00
-6.360000e+00 0.000000e+00
-6.350000e+00 0.000000e+00
-6.340000e+00 0.000000e+00
-6.330000e+00 0.000000e+00
-6.320000e+00 0.000000e+00
-6.310000e+00 0.000000e+00
-6.300000e+00 0.000000e+00
-6.290000e+00 0.000000e+00
-6.280000e+00 0.000000e+00
-6.270000e+00 0.000000e+00
-6.260000e+00 0.000000e+00
-6.250000e+00 0.000000e+00
-6.240000e+00 0.000000e+00
-6.230000e+00 0.000000e+00
-6.220000e+00 0.000000e+00
-6.210000e+00 0.000000e+00
-6.200000e+00 0.000000e+00
-6.190000e+00 0.000000e+00
-6.180000e+00 0.000000e+00
-6.170000e+00 0.000000e+00
-6.160000e+00 0.000000e+00
-6.150000e+00 0.000000e+00
-6.140000e+00 0.000000e+00
-6.130000e+00 0.000000e+00
-6.120000e+00 0.000000e+00
-6.110000e+00 0.000000e+00
-6.100000e+00 0.000000e+00
-6.090000e+00 0.000000e+00
-6.080000e+00 0.000000e+00
-6.070000e+00 0.000000e+00
-6.060000e+00 0.000000e+00
-6.050000e+00 0.000000e+00
-6.040000e+00 0.000000e+00
-6.030000e+00 0.000000e+00
-6.020000e+00 0.000000e+00
-6.010000e+00 0.000000e+00
-6.000000e+00 0.000000e+00
-5.990000e+00 0.000000e+00
-5.980000e+00 0.000000e+00
-5.970000e+00 0.000000e+00
-5.960000e+00 0.000000e+00
-5.950000e+00 0.000000e+00
-5.940000e+00 0.000000e+00
-5.930000e+00 0.000000e+00
-5.920000e+00 0.000000e+00
-5.910000e+00 0.000000e+00
-5.900000e+00 0.000000e+00
-5.890000e+00 0.000000e+00
-5.880000e+00 0.000000e+00
-5.870000e+00 0.000000e+00
-5.860000e+00 0.000000e+00
-5.850000e+00 0.000000e+00
-5.840000e+00 0.000000e+00
-5.830000e+00 0.000000e+00
-5.820000e+00 0.000000e+00
-5.810000e+00 0.000000e+00
-5.800000e+00 0.000000e+00
-5.790000e+00 0.000000e+00
-5.780000e+00 0.000000e+00
-5.770000e+00 0.000000e+00
-5.760000e+00 0.000000e+00
-5.750000e+00 0.000000e+00
-5.740000e+00 0.000000e+00
-5.730000e+00 0.000000e+00
-5.720000e+00 0.000000e+00
-5.710000e+00 0.000000e+00
-5.700000e+00 0.000000e+00
-5.690000e+00 0.000000e+00
-5.680000e+00 0.000000e+00
-5.670000e+00 0.000000e+00
-5.660000e+00 0.000000e+00
-5.650000e+00 0.000000e+00
-5.640000e+00 0.000000e+00
-5.630000e+00 0.000000e+00
-5.620000e+00 0.000000e+00
-5.610000e+00 0.000000e+00
-5.600000e+00 0.000000e+00
-5.590000e+00 0.000000e+00
-5.580000e+00 0.000000e+00
-5.570000e+00 0.000000e+00
-5.560000e+00 0.000000e+00
-5.550000e+00 0.000000e+00
-5.540000e+00 0.000000e+00
-5.530000e+00 0.000000e+00
-5.520000e+00 0.000000e+00
-5.510000e+00 0.000000e+00
-5.500000e+00 0.000000e+00
-5.490000e+00 0.000000e+00
-5.480000e+00 0.000000e+00
-5.470000e+00 0.000000e+00
-5.460000e+00 0.000000e+00
-5.450000e+00 0.000000e+00
-5.440000e+00 0.000000e+00
-5.430000e+00 0.000000e+00
-5.420000e+00 0.000000e+00
-5.410000e+00 0.000000e+00
-5.400000e+00 0.000000e+00
-5.390000e+00 0.000000e+00
-5.380000e+00 0.000000e+00
-5.370000e+00 0.000000e+00
-5.360000e+00 0.000000e+00
-5.350000e+00 0.000000e+00
-5.340000e+00 0.000000e+00
-5.330000e+00 0.000000e+00
-5.320000e+00 0.000000e+00
-5.310000e+00 0.000000e+00
-5.300000e+00 0.000000e+00
-5.290000e+00 0.000000e+00
-5.280000e+00 0.000000e+00
-5.270000e+00 0.000000e+00
-5.260000e+00 0.000000e+00
-5.250000e+00 0.000000e+00
-5.240000e+00 0.000000e+00
-5.230000e+00 0.000000e+00
-5.220000e+00 0.000000e+00
-5.210000e+00 0.000000e+00
-5.200000e+00 0.000000e+00
-5.190000e+00 0.000000e+00
-5.180000e+00 0.000000e+00
-5.170000e+00 0.000000e+00
-5.160000e+00 0.000000e+00
-5.150000e+00 0.000000e+00
-5.140000e+00 0.000000e+00
-5.130000e+00 0.000000e+00
-5.120000e+00 0.000000e+00
-5.110000e+00 0.000000e+00
-5.100000e+00 0.000000e+00
-5.090000e+00 0.000000e+00
-5.080000e+00 0.000000e+00
-5.070000e+00 0.000000e+00
-5.060000e+00 0.000000e+00
-5.050000e+00 0.000000e+00
-5.040000e+00 0.000000e+00
-5.030000e+00 0.000000e+00
-5.020000e+00 0.000000e+00
-5.010000e+00 0.000000e+00
-5.000000e+00 0.000000e+00
-4.990000e+00 0.000000e+00
-4.980000e+00 0.000000e+00
-4.970000e+00 0.000000e+00
-4.960000e+00 0.000000e+00
-4.950000e+00 0.000000e+00
-4.940000e+00 0.000000e+00
-4.930000e+00 0.000000e+00
-4.920000e+00 0.000000e+00
-4.910000e+00 0.000000e+00
-4.900000e+00 0.000000e+00
-4.890000e+00 0.000000e+00
-4.880000e+00 0.000000e+00
-4.870000e+00 0.000000e+00
-4.860000e+00 0.000000e+00
-4.850000e+00 0.000000e+00
-4.840000e+00 0.000000e+00
-4.830000e+00 0.000000e+00
-4.820000e+00 0.000000e+00
-4.810000e+00 0.000000e+00
-4.800000e+00 0.000000e+00
-4.790000e+00 0.000000e+00
-4.780000e+00 0.000000e+00
-4.770000e+00 0.000000e+00
-4.760000e+00 0.000000e+00
-4.750000e+00 0.000000e+00
-4.740000e+00 0.000000e+00
-4.730000e+00 0.000000e+00
-4.720000e+00 0.000000e+00
-4.710000e+00 0.000000e+00
-4.700000e+00 0.000000e+00
-4.690000e+00 0.000000e+00
-4.680000e+00 0.000000e+00
-4.670000e+00 0.000000e+00
-4.660000e+00 0.000000e+00
-4.650000e+00 0.000000e+00
-4.640000e+00 0.000000e+00
-4.630000e+00 0.000000e+00
-4.620000e+00 0.000000e+00
-4.610000e+00 0.000000e+00
-4.600000e+00 0.000000e+00
-4.590000e+00 0.000000e+00
-4.580000e+00 0.000000e+00
-4.570000e+00 0.000000e+00
-4.560000e+00 0.000000e+00
-4.550000e+00 0.000000e+00
-4.540000e+00 0.000000e+00
-4.530000e+00 0.000000e+00
-4.520000e+00 0.000000e+00
-4.510000e+00 0.000000e+00
-4.500000e+00 0.000000e+00
-4.490000e+00 0.000000e+00
-4.480000e+00 0.000000e+00
-4.470000e+00 0.000000e+00
-4.460000e+00 0.000000e+00
-4.450000e+00 0.000000e+00
-4.440000e+00 0.000000e+00
-4.430000e+00 0.000000e+00
-4.420000e+00 0.000000e+00
-4.410000e+00 0.000000e+00
-4.400000e+00 0.000000e+00
-4.390000e+00 0.000000e+00
-4.380000e+00 0.000000e+00
-4.370000e+00 0.000000e+00
-4.360000e+00 0.000000e+00
-4.350000e+00 0.000000e+00
-4.340000e+00 0.000000e+00
-4.330000e+00 0.000000e+00
-4.320000e+00 0.000000e+00
-4.310000e+00 0.000000e+00
-4.300000e+00 0.000000e+00
-4.290000e+00 0.000000e+00
-4.280000e+00 0.000000e+00
-4.270000e+00 0.000000e+00
-4.260000e+00 0.000000e+00
-4.250000e+00 0.000000e+00
-4.240000e+00 0.000000e+00
-4.230000e+00 0.000000e+00
-4.220000e+00 0.000000e+00
-4.210000e+00 0.000000e+00
-4.200000e+00 0.000000e+00
-4.190000e+00 0.000000e+00
-4.180000e+00 0.000000e+00
-4.170000e+00 0.000000e+00
-4.160000e+00 0.000000e+00
-4.150000e+00 0.000000e+00
-4.140000e+00 0.000000e+00
-4.130000e+00 0.000000e+00
-4.120000e+00 0.000000e+00
-4.110000e+00 0.000000e+00
-4.100000e+00 0.000000e+00
-4.090000e+00 0.000000e+00
-4.080000e+00 0.000000e+00
-4.070000e+00 0.000000e+00
-4.060000e+00 0.000000e+00
-4.050000e+00 0.000000e+00
-4.040000e+00 0.000000e+00
-4.030000e+00 0.000000e+00
-4.020000e+00 0.000000e+00
-4.010000e+00 0.000000e+00
-4.000000e+00 0.000000e+00
-3.990000e+00 0.000000e+00
-3.980000e+00 0.000000e+00
-3.970000e+00 0.000000e+00
-3.960000e+00 0.000000e+00
-3.950000e+00 0.000000e+00
-3.940000e+00 0.000000e+00
-3.930000e+00 0.000000e+00
-3.920000e+00 0.000000e+00
-3.910000e+00 0.000000e+00
-3.900000e+00 0.000000e+00
-3.890000e+00 0.000000e+00
-3.880000e+00 0.000000e+00
-3.870000e+00 0.000000e+00
-3.860000e+00 0.000000e+00
-3.850000e+00 0.000000e+00
-3.840000e+00 0.000000e+00
-3.830000e+00 0.000000e+00
-3.820000e+00 0.000000e+00
-3.810000e+00 0.000000e+00
-3.800000e+00 0.000000e+00
-3.790000e+00 0.000000e+00
-3.780000e+00 0.000000e+00
-3.770000e+00 0.000000e+00
-3.760000e+00 0.000000e+00
-3.750000e+00 0.000000e+00
-3.740000e+00 0.000000e+00
-3.730000e+00 0.000000e+00
-3.720000e+00 0.000000e+00
-3.710000e+00 0.000000e+00
-3.700000e+00 0.000000e+00
-3.690000e+00 0.000000e+00
-3.680000e+00 0.000000e+00
-3.670000e+00 0.000000e+00
-3.660000e+00 0.000000e+00
-3.650000e+00 0.000000e+00
-3.640000e+00 0.000000e+00
-3.630000e+00 0.000000e+00
-3.620000e+00 0.000000e+00
-3.610000e+00 0.000000e+00
-3.600000e+00 0.000000e+00
-3.590000e+00 0.000000e+00
-3.580000e+00 0.000000e+00
-3.570000e+00 0.000000e+00
-3.560000e+00 0.000000e+00
-3.550000e+00 0.000000e+00
-3.540000e+00 0.000000e+00
-3.530000e+00 0.000000e+00
-3.520000e+00 0.000000e+00
-3.510000e+00 0.000000e+00
-3.500000e+00 0.000000e+00
-3.490000e+00 0.000000e+00
-3.480000e+00 0.000000e+00
-3.470000e+00 0.000000e+00
-3.460000e+00 0.000000e+00
-3.450000e+00 0.000000e+00
-3.440000e+00 0.000000e+00
-3.430000e+00 0.000000e+00
-3.420000e+00 0.000000e+00
-3.410000e+00 0.000000e+00
-3.400000e+00 0.000000e+00
-3.390000e+00 0.000000e+00
-3.380000e+00 0.000000e+00
-3.370000e+00 0.000000e+00
-3.360000e+00 0.000000e+00
-3.350000e+00 0.000000e+00
-3.340000e+00 0.000000e+00
-3.330000e+00 0.000000e+00
-3.320000e+00 0.000000e+00
-3.310000e+00 0.000000e+00
-3.300000e+00 0.000000e+00
-3.290000e+00 0.000000e+00
-3.280000e+00 0.000000e+00
-3.270000e+00 0.000000e+00
-3.260000e+00 0.000000e+00
-3.250000e+00 0.000000e+00
-3.240000e+00 0.000000e+00
-3.230000e+00 0.000000e+00
-3.220000e+00 0.000000e+00
-3.210000e+00 0.000000e+00
-3.200000e+00 0.000000e+00
-3.190000e+00 0.000000e+00
-3.180000e+00 0.000000e+00
-3.170000e+00 0.000000e+00
-3.160000e+00 0.000000e+00
-3.150000e+00 0.000000e+00
-3.140000e+00 0.000000e+00
-3.130000e+00 0.000000e+00
-3.120000e+00 0.000000e+00
-3.110000e+00 0.000000e+00
-3.100000e+00 0.000000e+00
-3.090000e+00 0.000000e+00
-3.080000e+00 0.000000e+00
-3.070000e+00 0.000000e+00
-3.060000e+00 0.000000e+00
-3.050000e+00 0.000000e+00
-3.040000e+00 0.000000e+00
-3.030000e+00 0.000000e+00
-3.020000e+00 0.000000e+00
-3.010000e+00 0.000000e+00
-3.000000e+00 0.000000e+00
-2.990000e+00 0.000000e+00
-2.980000e+00 0.000000e+00
-2.970000e+00 0.000000e+00
-2.960000e+00 0.000000e+00
-2.950000e+00 0.000000e+00
-2.940000e+00 -1.401298e-45
-2.930000e+00 1.401298e-45
-2.920000e+00 1.401298e-45
-2.910000e+00 0.000000e+00
-2.900000e+00 0.000000e+00
-2.890000e+00 0.000000e+00
-2.880000e+00 0.000000e+00
-2.870000e+00 1.401298e-45
-2.860000e+00 1.401298e-45
-2.850000e+00 0.000000e+00
-2.840000e+00 0.000000e+00
-2.830000e+00 2.802597e-45
-2.820000e+00 1.401298e-45
-2.810000e+00 0.000000e+00
-2.800000e+00 0.000000e+00
-2.790000e+00 0.000000e+00
-2.780000e+00 0.000000e+00
-2.770000e+00 0.000000e+00
-2.760000e+00 0.000000e+00
-2.750000e+00 -2.802597e-45
-2.740000e+00 -1.401298e-45
-2.730000e+00 -2.802597e-45
-2.720000e+00 -2.802597e-45
-2.710000e+00 -4.203895e-45
-2.700000e+00 -4.203895e-45
-2.690000e+00 -1.401298e-45
-2.680000e+00 -1.401298e-45
-2.670000e+00 0.000000e+00
-2.660000e+00 2.802597e-45
-2.650000e+00 0.000000e+00
-2.640000e+00 5.605194e-45
-2.630000e+00 7.006492e-45
-2.620000e+00 1.121039e-44
-2.610000e+00 1.261169e-44
-2.600000e+00 1.541428e-44
-2.590000e+00 1.401298e-44
-2.580000e+00 1.401298e-44
-2.570000e+00 1.681558e-44
-2.560000e+00 1.261169e-44
-2.550000e+00 1.121039e-44
-2.540000e+00 4.203895e-45
-2.530000e+00 -4.203895e-45
-2.520000e+00 -8.407791e-45
-2.510000e+00 -2.101948e-44
-2.500000e+00 -3.082857e-44
-2.490000e+00 -3.923636e-44
-2.480000e+00 -5.044674e-44
-2.470000e+00 -6.165713e-44
-2.460000e+00 -6.586103e-44
-2.450000e+00 -7.707142e-44
-2.440000e+00 -7.987401e-44
-2.430000e+00 -8.968310e-44
-2.420000e+00 -8.968310e-44
-2.410000e+00 -7.987401e-44
-2.400000e+00 -7.426882e-44
-2.390000e+00 -6.025583e-44
-2.380000e+00 -4.063766e-44
-2.370000e+00 -1.541428e-44
-2.360000e+00 1.121039e-44
-2.350000e+00 4.624285e-44
-2.340000e+00 8.688050e-44
-2.330000e+00 1.317221e-43
-2.320000e+00 1.821688e-43
-2.310000e+00 2.382207e-43
-2.300000e+00 2.914701e-43
-2.290000e+00 3.419168e-43
-2.280000e+00 3.909623e-43
-2.270000e+00 4.330012e-43
-2.260000e+00 4.610272e-43
-2.250000e+00 4.750402e-43
-2.240000e+00 4.708363e-43
-2.230000e+00 4.484155e-43
-2.220000e+00 4.021727e-43
-2.210000e+00 3.335090e-43
-2.200000e+00 2.340168e-43
-2.190000e+00 1.008935e-43
-2.180000e+00 -5.605194e-44
-2.170000e+00 -2.452272e-43
-2.160000e+00 -4.582246e-43
-2.150000e+00 -6.978466e-43
-2.140000e+00 -9.486791e-43
-2.130000e+00 -1.210722e-42
-2.120000e+00 -1.471363e-42
-2.110000e+00 -1.719393e-42
-2.100000e+00 -1.945002e-42
-2.090000e+00 -2.132776e-42
-2.080000e+00 -2.268702e-42
-2.070000e+00 -2.338767e-42
-2.060000e+00 -2.314945e-42
-2.050000e+00 -2.202841e-42
-2.040000e+00 -1.981436e-42
-2.030000e+00 -1.631111e-42
-2.020000e+00 -1.154670e-42
-2.010000e+00 -5.366973e-43
-2.000000e+00 2.214052e-43
-1.990000e+00 1.104223e-42
-1.980000e+00 2.117362e-42
-1.970000e+00 3.224388e-42
-1.960000e+00 4.414090e-42
-1.950000e+00 5.643029e-42
-1.940000e+00 6.873369e-42
-1.930000e+00 8.049058e-42
-1.920000e+00 9.115447e-42
-1.910000e+00 1.001368e-41
-1.900000e+00 1.066809e-41
-1.890000e+00 1.100440e-41
-1.880000e+00 1.095395e-41
-1.870000e+00 1.044948e-41
-1.860000e+00 9.420930e-42
-1.850000e+00 7.829055e-42
-1.840000e+00 5.615003e-42
-1.830000e+00 2.752150e-42
-1.820000e+00 -7.482934e-43
-1.810000e+00 -4.880723e-42
-1.800000e+00 -9.572270e-42
-1.790000e+00 -1.475988e-41
-1.780000e+00 -2.031182e-41
-1.770000e+00 -2.607256e-41
-1.760000e+00 -3.185432e-41
-1.750000e+00 -3.742168e-41
-1.740000e+00 -4.251820e-41
-1.730000e+00 -4.685101e-41
-1.720000e+00 -5.010343e-41
-1.710000e+00 -5.196435e-41
-1.700000e+00 -5.209327e-41
-1.690000e+00 -5.017910e-41
-1.680000e+00 -4.592475e-41
-1.670000e+00 -3.907941e-41
-1.660000e+00 -2.945109e-41
-1.650000e+00 -1.692628e-41
-1.640000e+00 -1.471363e-42
-1.630000e+00 1.680858e-41
-1.620000e+00 3.770894e-41
-1.610000e+00 6.086260e-41
-1.600000e+00 8.576087e-41
-1.590000e+00 1.117283e-40
-1.580000e+00 1.379172e-40
-1.570000e+00 1.633494e-40
-1.560000e+00 1.868814e-40
-1.550000e+00 2.072548e-40
-1.540000e+00 2.231077e-40
-1.530000e+00 2.330191e-40
-1.520000e+00 2.355597e-40
-1.510000e+00 2.293393e-40
-1.500000e+00 2.130688e-40
-1.490000e+00 1.856202e-40
-1.480000e+00 1.461316e-40
-1.470000e+00 9.403974e-41
-1.460000e+00 2.918064e-41
-1.450000e+00 -4.810798e-41
-1.440000e+00 -1.369909e-40
-1.430000e+00 -2.359983e-40
-1.420000e+00 -3.430126e-40
-1.410000e+00 -4.552833e-40
-1.400000e+00 -5.693237e-40
-1.390000e+00 -6.810311e-40
-1.380000e+00 -7.856352e-40
-1.370000e+00 -8.779037e-40
-1.360000e+00 -9.521333e-40
-1.350000e+00 -1.002356e-39
-1.340000e+00 -1.022560e-39
-1.330000e+00 -1.006829e-39
-1.320000e+00 -9.496684e-40
-1.310000e+00 -8.462736e-40
-1.300000e+00 -6.927529e-40
-1.290000e+00 -4.865757e-40
-1.280000e+00 -2.267623e-40
-1.270000e+00 8.575526e-41
-1.260000e+00 4.478298e-40
-1.250000e+00 8.539036e-40
-1.240000e+00 1.295790e-39
-1.230000e+00 1.762560e-39
-1.220000e+00 2.240488e-39
-1.210000e+00 2.713177e-39
-1.200000e+00 3.161705e-39
-1.190000e+00 3.564889e-39
-1.180000e+00 3.899818e-39
-1.170000e+00 4.142404e-39
-1.160000e+00 4.268096e-39
-1.150000e+00 4.252780e-39
-1.140000e+00 4.073744e-39
-1.130000e+00 3.710781e-39
-1.120000e+00 3.147375e-39
-1.110000e+00 2.371964e-39
-1.100000e+00 1.379126e-39
-1.090000e+00 1.708099e-40
-1.080000e+00 -1.242538e-39
-1.070000e+00 -2.840974e-39
-1.060000e+00 -4.594324e-39
-1.050000e+00 -6.461667e-39
-1.040000e+00 -8.391134e-39
-1.030000e+00 -1.032013e-38
-1.020000e+00 -1.217600e-38
-1.010000e+00 -1.387710e-38
-1.000000e+00 -1.533453e-38
-9.900002e-01 -1.645429e-38
-9.800000e-01 -1.714001e-38
-9.700003e-01 -1.729619e-38
-9.600000e-01 -1.683201e-38
-9.500003e-01 -1.566542e-38
-9.400001e-01 -1.372760e-38
-9.300003e-01 -1.096776e-38
-9.200001e-01 -7.357743e-39
-9.100003e-01 -2.896759e-39
-9.000001e-01 2.384325e-39
-8.900003e-01 8.419123e-39
-8.800001e-01 1.510269e-38
-8.700004e-01 2.228939e-38
-8.600001e-01 2.979189e-38
-8.500004e-01 3.738181e-38
-8.400002e-01 4.479163e-38
-8.299999e-01 5.171866e-38
-8.200002e-01 5.783091e-38
-8.099999e-01 6.277479e-38
-8.000002e-01 6.618497e-38
-7.900000e-01 6.769601e-38
-7.800002e-01 6.695608e-38
-7.700000e-01 6.364186e-38
-7.600002e-01 5.747524e-38
-7.500000e-01 4.824021e-38
-7.400002e-01 3.580054e-38
-7.300000e-01 2.011713e-38
-7.200003e-01 1.264075e-39
-7.100000e-01 -2.055657e-38
-7.000003e-01 -4.500281e-38
-6.900001e-01 -7.158413e-38
-6.800003e-01 -9.965658e-38
-6.700001e-01 -1.284237e-37
-6.600003e-01 -1.569420e-37
-6.500001e-01 -1.841343e-37
-6.400003e-01 -2.088078e-37
-6.300001e-01 -2.296815e-37
-6.200004e-01 -2.454189e-37
-6.100001e-01 -2.546690e-37
-6.000004e-01 -2.561133e-37
-5.900002e-01 -2.485191e-37
-5.800004e-01 -2.307968e-37
-5.700002e-01 -2.020611e-37
-5.599999e-01 -1.616940e-37
-5.500002e-01 -1.094065e-37
-5.400000e-01 -4.529858e-38
-5.300002e-01 3.008751e-38
-5.200000e-01 1.157209e-37
-5.100002e-01 2.100472e-37
-5.000000e-01 3.109684e-37
-4.900002e-01 4.158373e-37
-4.800000e-01 5.214733e-37
-4.700003e-01 6.242000e-37
-4.600000e-01 7.199035e-37
-4.500003e-01 8.041162e-37
-4.400001e-01 8.721287e-37
-4.300003e-01 9.191234e-37
-4.200001e-01 9.403289e-37
-4.100003e-01 9.312022e-37
-4.000001e-01 8.876230e-37
-3.900003e-01 8.061021e-37
-3.800001e-01 6.839999e-37
-3.700004e-01 5.197420e-37
-3.600001e-01 3.130288e-37
-3.500004e-01 6.503028e-38
-3.400002e-01 -2.214437e-37
-3.300004e-01 -5.418119e-37
-3.200002e-01 -8.896270e-37
-3.099999e-01 -1.256543e-36
-3.000002e-01 -1.632337e-36
-2.900000e-01 -2.005010e-36
-2.800002e-01 -2.360958e-36
-2.700000e-01 -2.685227e-36
-2.600002e-01 -2.961857e-36
-2.500000e-01 -3.174295e-36
-2.400002e-01 -3.305912e-36
-2.300000e-01 -3.340567e-36
-2.200003e-01 -3.263256e-36
-2.100000e-01 -3.060795e-36
-2.000003e-01 -2.722548e-36
-1.900001e-01 -2.241156e-36
-1.800003e-01 -1.613243e-36
-1.700001e-01 -8.401155e-37
-1.600003e-01 7.165733e-38
-1.500001e-01 1.109727e-36
-1.400003e-01 2.255600e-36
-1.300001e-01 3.484436e-36
-1.200004e-01 4.765053e-36
-1.100001e-01 6.060111e-36
-1.000004e-01 7.326613e-36
-9.000015e-02 8.516607e-36
-8.000040e-02 9.578169e-36
-7.000017e-02 1.045671e-35
-5.999994e-02 1.109645e-35
-5.000019e-02 1.144229e-35
-3.999996e-02 1.144176e-35
-3.000021e-02 1.104720e-35
-1.999998e-02 1.021812e-35
-1.000023e-02 8.923543e-36
0.000000e+00 7.144361e-36
1.000023e-02 4.875625e-36
1.999950e-02 2.128653e-36
2.999973e-02 -1.067249e-36
3.999996e-02 -4.663296e-36
5.000019e-02 -8.590343e-36
5.999947e-02 -1.275855e-35
6.999969e-02 -1.705768e-35
7.999992e-02 -2.135819e-35
9.000015e-02 -2.551315e-35
9.999943e-02 -2.936099e-35
1.099997e-01 -3.272901e-35
1.199999e-01 -3.543799e-35
1.300001e-01 -3.730743e-35
1.399994e-01 -3.816153e-35
1.499996e-01 -3.783590e-35
1.599998e-01 -3.618467e-35
1.700001e-01 -3.308796e-35
1.799994e-01 -2.845929e-35
1.899996e-01 -2.225307e-35
1.999998e-01 -1.447133e-35
2.100000e-01 -5.170063e-36
2.200003e-01 5.535853e-36
2.299995e-01 1.746881e-35
2.399998e-01 3.038635e-35
2.500000e-01 4.398108e-35
2.600002e-01 5.788278e-35
2.699995e-01 7.166260e-35
2.799997e-01 8.484055e-35
2.900000e-01 9.689462e-35
3.000002e-01 1.072737e-34
3.099995e-01 1.154120e-34
3.199997e-01 1.207466e-34
3.299999e-01 1.227369e-34
3.400002e-01 1.208857e-34
3.499994e-01 1.147612e-34
3.599997e-01 1.040204e-34
3.699999e-01 8.843182e-35
3.800001e-01 6.789693e-35
3.899994e-01 4.247093e-35
3.999996e-01 1.237999e-35
4.099998e-01 -2.196513e-35
4.200001e-01 -5.995891e-35
4.299994e-01 -1.007980e-34
4.399996e-01 -1.434825e-34
4.499998e-01 -1.868253e-34
4.600000e-01 -2.294689e-34
4.700003e-01 -2.699090e-34
4.799995e-01 -3.065270e-34
4.899998e-01 -3.376297e-34
5.000000e-01 -3.614969e-34
5.100002e-01 -3.764355e-34
5.199995e-01 -3.808395e-34
5.299997e-01 -3.732538e-34
5.400000e-01 -3.524413e-34
5.500002e-01 -3.174518e-34
5.599995e-01 -2.676877e-34
5.699997e-01 -2.029675e-34
5.799999e-01 -1.235823e-34
5.900002e-01 -3.034462e-35
5.999994e-01 7.537625e-35
6.099997e-01 1.916318e-34
6.199999e-01 3.158883e-34
6.300001e-01 4.450401e-34
6.399994e-01 5.754435e-34
6.499996e-01 7.029726e-34
6.599998e-01 8.230971e-34
6.700001e-01 9.309856e-34
6.799994e-01 1.021625e-33
6.899996e-01 1.089969e-33
6.999998e-01 1.131097e-33
7.100000e-01 1.140392e-33
7.200003e-01 1.113733e-33
7.299995e-01 1.047681e-33
7.399998e-01 9.396819e-34
7.500000e-01 7.882514e-34
7.600002e-01 5.931506e-34
7.699995e-01 3.555390e-34
7.799997e-01 7.810540e-35
7.900000e-01 -2.348437e-34
8.000002e-01 -5.773353e-34
8.099995e-01 -9.417290e-34
8.199997e-01 -1.318772e-33
8.299999e-01 -1.697717e-33
8.400002e-01 -2.066495e-33
8.499994e-01 -2.411958e-33
8.599997e-01 -2.720189e-33
8.699999e-01 -2.976853e-33
8.800001e-01 -3.167634e-33
8.899994e-01 -3.278695e-33
8.999996e-01 -3.297183e-33
9.099998e-01 -3.211764e-33
9.200001e-01 -3.013174e-33
9.299994e-01 -2.694748e-33
9.399996e-01 -2.252937e-33
9.499998e-01 -1.687784e-33
9.600000e-01 -1.003332e-33
9.700003e-01 -2.079464e-34
9.799995e-01 6.854603e-34
9.899998e-01 1.659334e-33
1.000000e+00 2.691522e-33
1.010000e+00 3.755464e-33
1.020000e+00 4.820572e-33
1.030000e+00 5.852736e-33
1.040000e+00 6.815065e-33
1.050000e+00 7.668749e-33
1.059999e+00 8.374098e-33
1.070000e+00 8.891737e-33
1.080000e+00 9.183913e-33
1.090000e+00 9.215893e-33
1.099999e+00 8.957429e-33
1.110000e+00 8.384227e-33
1.120000e+00 7.479400e-33
1.130000e+00 6.234851e-33
1.139999e+00 4.652491e-33
1.150000e+00 2.745301e-33
1.160000e+00 5.381319e-34
1.170000e+00 -1.931776e-33
1.179999e+00 -4.614614e-33
1.190000e+00 -7.448236e-33
1.200000e+00 -1.035880e-32
1.210000e+00 -1.326182e-32
1.220000e+00 -1.606380e-32
1.230000e+00 -1.866411e-32
1.240000e+00 -2.095758e-32
1.250000e+00 -2.283730e-32
1.260000e+00 -2.419788e-32
1.270000e+00 -2.493903e-32
1.280000e+00 -2.496927e-32
1.290000e+00 -2.420991e-32
1.300000e+00 -2.259888e-32
1.309999e+00 -2.009463e-32
1.320000e+00 -1.667961e-32
1.330000e+00 -1.236344e-32
1.340000e+00 -7.185671e-33
1.349999e+00 -1.217579e-33
1.360000e+00 5.436539e-33
1.370000e+00 1.263919e-32
1.380000e+00 2.022049e-32
1.389999e+00 2.798008e-32
1.400000e+00 3.569025e-32
1.410000e+00 4.310032e-32
1.420000e+00 4.994211e-32
1.429999e+00 5.593661e-32
1.440000e+00 6.080182e-32
1.450000e+00 6.426143e-32
1.460000e+00 6.605406e-32
1.469999e+00 6.594349e-32
1.480000e+00 6.372876e-32
1.490000e+00 5.925425e-32
1.500000e+00 5.241976e-32
1.510000e+00 4.318937e-32
1.520000e+00 3.159975e-32
1.530000e+00 1.776653e-32
1.540000e+00 1.889123e-33
1.550000e+00 -1.574657e-32
1.559999e+00 -3.476807e-32
1.570000e+00 -5.471892e-32
1.580000e+00 -7.506430e-32
1.590000e+00 -9.519959e-32
1.599999e+00 -1.144620e-31
1.610000e+00 -1.321459e-31
1.620000e+00 -1.475199e-31
1.630000e+00 -1.598482e-31
1.639999e+00 -1.684128e-31
1.650000e+00 -1.725385e-31
1.660000e+00 -1.716189e-31
1.670000e+00 -1.651431e-31
1.679999e+00 -1.527214e-31
1.690000e+00 -1.341118e-31
1.700000e+00 -1.092424e-31
1.710000e+00 -7.823232e-32
1.719999e+00 -4.140820e-32
1.730000e+00 6.838082e-34
1.740000e+00 4.727212e-32
1.750000e+00 9.735951e-32
1.760000e+00 1.497312e-31
1.770000e+00 2.029693e-31
1.780000e+00 2.554761e-31
1.790000e+00 3.055054e-31
1.800000e+00 3.512013e-31
1.809999e+00 3.906453e-31
1.820000e+00 4.219095e-31
1.830000e+00 4.431173e-31
1.840000e+00 4.525067e-31
1.849999e+00 4.484990e-31
1.860000e+00 4.297678e-31
1.870000e+00 3.953075e-31
1.880000e+00 3.444998e-31
1.889999e+00 2.771746e-31
1.900000e+00 1.936637e-31
1.910000e+00 9.484453e-32
1.920000e+00 -1.782838e-32
1.929999e+00 -1.423067e-31
1.940000e+00 -2.759481e-31
1.950000e+00 -4.155342e-31
1.960000e+00 -5.573095e-31
1.969999e+00 -6.970391e-31
1.980000e+00 -8.300886e-31
1.990000e+00 -9.515268e-31
2.000000e+00 -1.056244e-30
2.010000e+00 -1.139093e-30
2.020000e+00 -1.195046e-30
2.030000e+00 -1.219359e-30
2.040000e+00 -1.207753e-30
2.050000e+00 -1.156599e-30
2.059999e+00 -1.063095e-30
2.070000e+00 -9.254457e-31
2.080000e+00 -7.430324e-31
2.090000e+00 -5.165527e-31
2.099999e+00 -2.481486e-31
2.110000e+00 5.850273e-32
2.120000e+00 3.981333e-31
2.130000e+00 7.638712e-31
2.139999e+00 1.147274e-30
2.150000e+00 1.538415e-30
2.160000e+00 1.926024e-30
2.170000e+00 2.297675e-30
2.179999e+00 2.640052e-30
2.190000e+00 2.939239e-30
2.200000e+00 3.181090e-30
2.210000e+00 3.351620e-30
2.219999e+00 3.437456e-30
2.230000e+00 3.426305e-30
2.240000e+00 3.307442e-30
2.250000e+00 3.072206e-30
2.260000e+00 2.714499e-30
2.270000e+00 2.231243e-30
2.280000e+00 1.622807e-30
2.290000e+00 8.933894e-31
2.300000e+00 5.130730e-32
2.309999e+00 -8.907898e-31
2.320000e+00 -1.915814e-30
2.330000e+00 -3.002254e-30
2.340000e+00 -4.124318e-30
2.349999e+00 -5.252234e-30
2.360000e+00 -6.352662e-30
2.370000e+00 -7.389311e-30
2.380000e+00 -8.323655e-30
2.389999e+00 -9.115833e-30
2.400000e+00 -9.725664e-30
2.410000e+00 -1.011379e-29
2.420000e+00 -1.024292e-29
2.429999e+00 -1.007918e-29
2.440000e+00 -9.593416e-30
2.450000e+00 -8.762652e-30
2.460000e+00 -7.571393e-30
2.469999e+00 -6.012943e-30
2.480000e+00 -4.090565e-30
2.490000e+00 -1.818524e-30
2.500000e+00 7.771015e-31
2.510000e+00 3.657853e-30
2.520000e+00 6.772602e-30
2.530000e+00 1.005759e-29
2.540000e+00 1.343685e-29
2.550000e+00 1.682299e-29
2.559999e+00 2.011845e-29
2.570000e+00 2.321710e-29
2.580000e+00 2.600630e-29
2.590000e+00 2.836941e-29
2.599999e+00 3.018859e-29
2.610000e+00 3.134807e-29
2.620000e+00 3.173761e-29
2.630000e+00 3.125622e-29
2.639999e+00 2.981609e-29
2.650000e+00 2.734651e-29
2.660000e+00 2.379785e-29
2.670000e+00 1.914516e-29
2.679999e+00 1.339184e-29
2.690000e+00 6.572599e-30
2.700000e+00 -1.243944e-30
2.710000e+00 -9.953365e-30
2.719999e+00 -1.941428e-29
2.730000e+00 -2.944816e-29
2.740000e+00 -3.984006e-29
2.750000e+00 -5.034048e-29
2.760000e+00 -6.066836e-29
2.770000e+00 -7.051532e-29
2.780000e+00 -7.955101e-29
2.790000e+00 -8.742977e-29
2.800000e+00 -9.379836e-29
2.809999e+00 -9.830482e-29
2.820000e+00 -1.006082e-28
2.830000e+00 -1.003890e-28
2.840000e+00 -9.736068e-29
2.849999e+00 -9.128068e-29
2.860000e+00 -8.196224e-29
2.870000e+00 -6.928563e-29
2.880000e+00 -5.320901e-29
2.889999e+00 -3.377815e-29
2.900000e+00 -1.113513e-29
2.910000e+00 1.447466e-29
2.920000e+00 4.269757e-29
2.929999e+00 7.306935e-29
2.940000e+00 1.050146e-28
2.950000e+00 1.378509e-28
2.960000e+00 1.707932e-28
2.969999e+00 2.029657e-28
2.980000e+00 2.334131e-28
2.990000e+00 2.611184e-28
3.000000e+00 2.850227e-28
3.010000e+00 3.040485e-28
3.020000e+00 3.171267e-28
3.030000e+00 3.232255e-28
3.040000e+00 3.213824e-28
3.050000e+00 3.107367e-28
3.059999e+00 2.905644e-28
3.070000e+00 2.603115e-28
3.080000e+00 2.196289e-28
3.090000e+00 1.684032e-28
3.099999e+00 1.067863e-28
3.110000e+00 3.522076e-29