-8.000000e+00 0.000000e+00
-7.950000e+00 0.000000e+00
-7.900000e+00 0.000000e+00
-7.850000e+00 0.000000e+00
-7.800000e+00 0.000000e+00
-7.750000e+00 0.000000e+00
-7.700000e+00 0.000000e+00
-7.650000e+00 0.000000e+00
-7.600000e+00 0.000000e+00
-7.550000e+00 0.000000e+00
-7.500000e+00 0.000000e+00
-7.450000e+00 0.000000e+00
-7.400000e+00 0.000000e+00
-7.350000e+00 0.000000e+00
-7.300000e+00 0.000000e+00
-7.250000e+00 0.000000e+00
-7.200000e+00 0.000000e+00
-7.150000e+00 0.000000e+00
-7.100000e+00 0.000000e+00
-7.050000e+00 0.000000e+00
-7.000000e+00 0.000000e+00
-6.950000e+00 0.000000e+00
-6.900000e+00 0.000000e+00
-6.850000e+00 0.000000e+00
-6.800000e+00 0.000000e+00
-6.750000e+00 0.000000e+00
-6.700000e+00 0.000000e+00
-6.650000e+00 0.000000e+00
-6.600000e+00 0.000000e+00
-6.550000e+00 0.000000e+00
-6.500000e+00 0.000000e+00
-6.450000e+00 0.000000e+00
-6.400000e+00 0.000000e+00
-6.350000e+00 0.000000e+00
-6.300000e+00 0.000000e+00
-6.250000e+00 0.000000e+00
-6.200000e+00 0.000000e+00
-6.150000e+00 0.000000e+00
-6.100000e+00 0.000000e+00
-6.050000e+00 0.000000e+00
-6.000000e+00 0.000000e+00
-5.950000e+00 0.000000e+00
-5.900000e+00 0.000000e+00
-5.850000e+00 0.000000e+00
-5.800000e+00 0.000000e+00
-5.750000e+00 0.000000e+00
-5.700000e+00 0.000000e+00
-5.650000e+00 0.000000e+00
-5.600000e+00 0.000000e+00
-5.550000e+00 0.000000e+00
-5.500000e+00 0.000000e+00
-5.450000e+00 0.000000e+00
-5.400000e+00 0.000000e+00
-5.350000e+00 0.000000e+00
-5.300000e+00 0.000000e+00
-5.250000e+00 0.000000e+00
-5.200000e+00 0.000000e+00
-5.150000e+00 0.000000e+00
-5.100000e+00 0.000000e+00
-5.050000e+00 0.000000e+00
-5.000000e+00 0.000000e+00
-4.950000e+00 0.000000e+00
-4.900000e+00 0.000000e+00
-4.850000e+00 0.000000e+00
-4.800000e+00 0.000000e+00
-4.750000e+00 0.000000e+00
-4.700000e+00 0.000000e+00
-4.650000e+00 0.000000e+00
-4.600000e+00 0.000000e+00
-4.550000e+00 0.000000e+00
-4.500000e+00 0.000000e+00
-4.450000e+00 0.000000e+00
-4.400000e+00 0.000000e+00
-4.350000e+00 0.000000e+00
-4.300000e+00 0.000000e+00
-4.250000e+00 0.000000e+00
-4.200000e+00 0.000000e+00
-4.150000e+00 0.000000e+00
-4.100000e+00 0.000000e+00
-4.050000e+00 0.000000e+00
-4.000000e+00 0.000000e+00
-3.950000e+00 0.000000e+00
-3.900000e+00 0.000000e+00
-3.850000e+00 0.000000e+00
-3.800000e+00 0.000000e+00
-3.750000e+00 0.000000e+00
-3.700000e+00 0.000000e+00
-3.650000e+00 0.000000e+00
-3.600000e+00 0.000000e+00
-3.550000e+00 0.000000e+00
-3.500000e+00 0.000000e+00
-3.450000e+00 0.000000e+00
-3.400000e+00 0.000000e+00
-3.350000e+00 0.000000e+00
-3.300000e+00 0.000000e+00
-3.250000e+00 0.000000e+00
-3.200000e+00 0.000000e+00
-3.150000e+00 0.000000e+00
-3.100000e+00 0.000000e+00
-3.050000e+00 0.000000e+00
-3.000000e+00 0.000000e+00
-2.950000e+00 0.000000e+00
-2.900000e+00 0.000000e+00
-2.850000e+00 0.000000e+00
-2.800000e+00 0.000000e+00
-2.750000e+00 0.000000e+00
-2.700000e+00 0.000000e+00
-2.650000e+00 0.000000e+00
-2.600000e+00 0.000000e+00
-2.550000e+00 0.000000e+00
-2.500000e+00 0.000000e+00
-2.450000e+00 0.000000e+00
-2.400000e+00 0.000000e+00
-2.350000e+00 0.000000e+00
-2.300000e+00 0.000000e+00
-2.250000e+00 0.000000e+00
-2.200000e+00 0.000000e+00
-2.150000e+00 0.000000e+00
-2.100000e+00 0.000000e+00
-2.050000e+00 0.000000e+00
-2.000000e+00 0.000000e+00
-1.950000e+00 0.000000e+00
-1.900000e+00 0.000000e+00
-1.850000e+00 0.000000e+00
-1.800000e+00 0.000000e+00
-1.750000e+00 0.000000e+00
-1.700000e+00 0.000000e+00
-1.650000e+00 0.000000e+00
-1.600000e+00 0.000000e+00
-1.550000e+00 0.000000e+00
-1.500000e+00 0.000000e+00
-1.450000e+00 0.000000e+00
-1.400000e+00 1.401298e-45
-1.350000e+00 -1.401298e-45
-1.300000e+00 -8.407791e-45
-1.250000e+00 -1.261169e-44
-1.200000e+00 2.802597e-45
-1.150000e+00 4.344025e-44
-1.100000e+00 8.127531e-44
-1.050000e+00 4.344025e-44
-1.000000e+00 -7.707142e-44
-9.499998e-01 -1.331234e-43
-9.000001e-01 -2.802597e-45
-8.499999e-01 3.923636e-43
-7.999997e-01 7.174648e-43
-7.500000e-01 4.007714e-43
-6.999998e-01 -9.038375e-43
-6.500001e-01 -2.438259e-42
-5.999999e-01 -2.170611e-42
-5.499997e-01 1.667545e-42
-5.000000e-01 7.485736e-42
-4.499998e-01 8.923469e-42
-4.000001e-01 -1.294800e-42
-3.499999e-01 -2.144267e-41
-2.999997e-01 -3.320797e-41
-2.500000e-01 -9.726413e-42
-1.999998e-01 5.447688e-41
-1.500001e-01 1.117311e-40
-9.999990e-02 7.192164e-41
-4.999971e-02 -1.136061e-40
0.000000e+00 -3.378783e-40
5.000019e-02 -3.251461e-40
1.000004e-01 1.562700e-40
1.500006e-01 9.220446e-40
1.999998e-01 1.201665e-39
2.500000e-01 1.133903e-40
3.000002e-01 -2.228502e-39
3.500004e-01 -3.878503e-39
4.000006e-01 -1.914786e-39
4.499998e-01 4.541429e-39
5.000000e-01 1.116755e-38
5.500002e-01 9.286272e-39
6.000004e-01 -6.647361e-39
6.500006e-01 -2.875074e-38
6.999998e-01 -3.373012e-38
7.500000e-01 5.772481e-40
8.000002e-01 6.520116e-38
8.500004e-01 1.038691e-37
9.000006e-01 4.396966e-38
9.499998e-01 -1.243083e-37
1.000000e+00 -2.810974e-37
1.050000e+00 -2.185372e-37
1.100000e+00 1.703957e-37
1.150001e+00 6.727220e-37
1.200000e+00 7.578541e-37
1.250000e+00 -2.032320e-38
1.300000e+00 -1.401740e-36
1.350000e+00 -2.177477e-36
1.400001e+00 -9.263386e-37
1.450000e+00 2.413278e-36
1.500000e+00 5.421663e-36
1.550000e+00 4.241007e-36
1.600000e+00 -2.853864e-36
1.650001e+00 -1.180212e-35
1.700000e+00 -1.337167e-35
1.750000e+00 -4.112937e-37
1.800000e+00 2.217436e-35
1.850000e+00 3.470846e-35
1.900001e+00 1.563588e-35
1.950000e+00 -3.441027e-35
2.000000e+00 -7.819228e-35
2.050000e+00 -6.076639e-35
2.100000e+00 3.803237e-35
2.150001e+00 1.568508e-34
2.200000e+00 1.707761e-34
2.250000e+00 -4.150841e-36
2.300000e+00 -2.857027e-34
2.350000e+00 -4.133341e-34
2.400001e+00 -1.378220e-34
2.450000e+00 4.781042e-34
2.500000e+00 9.291224e-34
2.550000e+00 5.718010e-34
2.600000e+00 -7.081283e-34
2.650001e+00 -2.010386e-33
2.700000e+00 -1.803861e-33
2.750000e+00 6.988949e-34
2.800000e+00 4.126000e-33
2.850000e+00 5.100196e-33
2.900001e+00 8.034634e-34
2.950000e+00 -7.426383e-33
3.000000e+00 -1.289251e-32
3.050000e+00 -7.601439e-33
3.100000e+00 9.660521e-33
3.150001e+00 2.772668e-32
3.200000e+00 2.760017e-32
3.250000e+00 -1.753116e-33
3.300000e+00 -4.690962e-32
3.350000e+00 -7.016390e-32
3.400001e+00 -3.558334e-32
3.450000e+00 5.255136e-32
3.500000e+00 1.330610e-31
3.550000e+00 1.221781e-31
3.600000e+00 -1.097301e-32
3.650001e+00 -1.868865e-31
3.700000e+00 -2.469369e-31
3.750000e+00 -8.499431e-32
3.800000e+00 2.126638e-31
3.850000e+00 3.699705e-31
3.900001e+00 1.411490e-31
3.950000e+00 -3.795234e-31
4.000000e+00 -6.640528e-31
4.050000e+00 -1.196011e-31
4.100000e+00 1.207300e-30
4.150001e+00 2.186713e-30
4.200000e+00 1.124734e-30
4.250000e+00 -2.648083e-30
4.300000e+00 -7.123870e-30
4.350000e+00 -7.679678e-30
4.400001e+00 -5.229620e-32
4.450000e+00 1.478190e-29
4.500000e+00 2.746841e-29
4.550000e+00 2.327188e-29
4.600000e+00 -7.428072e-30
4.650001e+00 -5.603533e-29
4.700000e+00 -9.056047e-29
4.750000e+00 -6.843903e-29
4.800000e+00 3.231640e-29
4.850000e+00 1.792489e-28
4.900001e+00 2.766243e-28
4.950000e+00 2.052933e-28
5.000000e+00 -9.142382e-29
5.050000e+00 -5.184366e-28
5.100000e+00 -8.080110e-28
5.150001e+00 -6.278857e-28
5.200000e+00 1.880736e-28
5.250000e+00 1.396327e-27
5.300000e+00 2.276330e-27
5.350000e+00 1.905965e-27
5.400001e+00 -2.246477e-28
5.450000e+00 -3.541350e-27
5.500000e+00 -6.161457e-27
5.550000e+00 -5.579374e-27
5.600000e+00 -2.785175e-28
5.650001e+00 8.456618e-27
5.700000e+00 1.586686e-26
5.750000e+00 1.541597e-26
5.800000e+00 2.908439e-27
5.850000e+00 -1.886292e-26
5.900001e+00 -3.836727e-26
5.950000e+00 -3.952893e-26
6.000000e+00 -1.180191e-26
6.050000e+00 3.873838e-26
6.100000e+00 8.560516e-26
6.150001e+00 9.220894e-26
6.200000e+00 3.514691e-26
6.250000e+00 -7.173785e-26
6.300000e+00 -1.713735e-25
6.350000e+00 -1.887175e-25
6.400001e+00 -8.100456e-26
6.450000e+00 1.167647e-25
6.500000e+00 2.903449e-25
6.550000e+00 3.084678e-25
6.600000e+00 1.226423e-25
6.650001e+00 -1.660716e-25
6.700000e+00 -3.466121e-25
6.750000e+00 -2.542234e-25
6.800000e+00 5.061524e-26
6.850000e+00 2.456654e-25
6.900001e+00 -3.113693e-26
6.950000e+00 -7.762880e-25
7.000000e+00 -1.340807e-24
7.050000e+00 -6.610734e-25
7.100000e+00 1.869517e-24
7.150001e+00 5.313493e-24
7.200000e+00 6.832503e-24
7.250000e+00 2.973053e-24
7.300000e+00 -7.418179e-24
7.350000e+00 -2.021445e-23
7.400001e+00 -2.569947e-23
7.450000e+00 -1.313781e-23
7.500000e+00 2.042630e-23
7.550000e+00 6.197313e-23
7.600000e+00 8.243810e-23
7.650001e+00 5.023349e-23
7.700000e+00 -4.418771e-23
7.750000e+00 -1.661328e-22
7.800000e+00 -2.365889e-22
7.850000e+00 -1.679123e-22
7.900001e+00 7.193551e-23
7.950000e+00 4.010219e-22
8.000000e+00 6.205577e-22
8.050001e+00 5.013787e-22
8.100000e+00 -5.756432e-23
8.150000e+00 -8.817130e-22
8.200001e+00 -1.503673e-21
8.250000e+00 -1.358573e-21
8.300001e+00 -1.546380e-22
8.350000e+00 1.770847e-21
8.400000e+00 3.384811e-21
8.450001e+00 3.374001e-21
8.500000e+00 9.686012e-22
8.550001e+00 -3.240806e-21
8.600000e+00 -7.098459e-21
8.650000e+00 -7.723740e-21
8.700001e+00 -3.255233e-21
8.750000e+00 5.371692e-21
8.800001e+00 1.389196e-20
8.850000e+00 1.634263e-20
8.900000e+00 8.589571e-21
8.950001e+00 -8.014959e-21
9.000000e+00 -2.542556e-20
9.050001e+00 -3.198795e-20
9.100000e+00 -1.926785e-20
9.150000e+00 1.084710e-20
9.200001e+00 4.376066e-20
9.250000e+00 5.793274e-20
9.300001e+00 3.759130e-20
9.350000e+00 -1.427270e-20
9.400000e+00 -7.184674e-20
9.450001e+00 -9.731680e-20
9.500000e+00 -6.374685e-20
9.550001e+00 2.249806e-20
9.600000e+00 1.161036e-19
9.650000e+00 1.533640e-19
9.700001e+00 9.232200e-20
9.750000e+00 -5.051558e-20
9.800001e+00 -1.946467e-19
9.850000e+00 -2.348960e-19
9.900000e+00 -1.107791e-19
9.950001e+00 1.353461e-19
1.000000e+01 3.570835e-19
1.005000e+01 3.782126e-19
1.010000e+01 1.121007e-19
1.015000e+01 -3.452233e-19
1.020000e+01 -7.225284e-19
1.025000e+01 -7.072425e-19
1.030000e+01 -1.521982e-19
1.035000e+01 7.628605e-19
1.040000e+01 1.536745e-18
1.045000e+01 1.567332e-18
1.050000e+01 5.132438e-19
1.055000e+01 -1.384409e-18
1.060000e+01 -3.229830e-18
1.065000e+01 -3.778034e-18
1.070000e+01 -2.073570e-18
1.075000e+01 1.823846e-18
1.080000e+01 6.417842e-18
1.085000e+01 9.046671e-18
1.090000e+01 7.017795e-18
1.095000e+01 -6.603676e-19
1.100000e+01 -1.174568e-17
1.105000e+01 -2.056010e-17
1.110000e+01 -2.001565e-17
1.115000e+01 -5.734622e-18
1.120000e+01 1.946468e-17
1.125000e+01 4.374540e-17
1.130000e+01 4.991583e-17
1.135000e+01 2.490876e-17
1.140000e+01 -2.879356e-17
1.145000e+01 -8.723955e-17
1.150000e+01 -1.118282e-16
1.155000e+01 -7.018105e-17
1.160000e+01 3.761785e-17
1.165000e+01 1.644117e-16
1.170000e+01 2.292785e-16
1.175000e+01 1.614797e-16
1.180000e+01 -4.414126e-17
1.185000e+01 -2.965908e-16
1.190000e+01 -4.361283e-16
1.195000e+01 -3.230215e-16
1.200000e+01 5.373067e-17
1.205000e+01 5.206275e-16
1.210000e+01 7.784782e-16
1.215000e+01 5.749257e-16
1.220000e+01 -9.588869e-17
1.225000e+01 -9.052109e-16
1.230000e+01 -1.317882e-15
1.235000e+01 -9.160507e-16
1.240000e+01 2.566921e-16
1.245000e+01 1.580942e-15
1.250000e+01 2.138007e-15
1.255000e+01 1.296945e-15
1.260000e+01 -7.291179e-16
1.265000e+01 -2.785481e-15
1.270000e+01 -3.354511e-15
1.275000e+01 -1.583655e-15
1.280000e+01 1.875969e-15
1.285000e+01 4.913229e-15
1.290000e+01 5.117378e-15
1.295000e+01 1.510987e-15
1.300000e+01 -4.289509e-15
1.305000e+01 -8.537649e-15
1.310000e+01 -7.571930e-15
1.315000e+01 -6.111268e-16
1.320000e+01 8.825783e-15
1.325000e+01 1.435015e-14
1.330000e+01 1.071256e-14
1.335000e+01 -1.922240e-15
1.340000e+01 -1.660072e-14
1.345000e+01 -2.295062e-14
1.350000e+01 -1.404337e-14
1.355000e+01 7.497127e-15
1.360000e+01 2.895847e-14
1.365000e+01 3.445186e-14
1.370000e+01 1.599230e-14
1.375000e+01 -1.854921e-14
1.380000e+01 -4.742399e-14
1.385000e+01 -4.791605e-14
1.390000e+01 -1.314070e-14
1.395000e+01 3.902274e-14
1.400000e+01 7.354767e-14
1.405000e+01 6.064890e-14
1.410000e+01 -5.137615e-16
1.415000e+01 -7.452772e-14
1.420000e+01 -1.082622e-13
1.425000e+01 -6.719796e-14
1.430000e+01 3.402435e-14
1.435000e+01 1.315636e-13
1.440000e+01 1.499947e-13
1.445000e+01 5.748418e-14
1.450000e+01 -9.980646e-14
1.455000e+01 -2.154011e-13
1.460000e+01 -1.907615e-13
1.465000e+01 -1.319435e-14
1.470000e+01 2.145519e-13
1.475000e+01 3.271795e-13
1.480000e+01 2.105545e-13
1.485000e+01 -9.764792e-14
1.490000e+01 -4.015239e-13
1.495000e+01 -4.619793e-13
1.500000e+01 -1.726969e-13
1.505000e+01 3.250770e-13
1.510000e+01 6.925624e-13
1.515000e+01 6.088701e-13
1.520000e+01 2.457538e-14
1.525000e+01 -7.334481e-13
1.530000e+01 -1.122303e-12
1.535000e+01 -7.481706e-13
1.540000e+01 2.955581e-13
1.545000e+01 1.382343e-12
1.550000e+01 1.702027e-12
1.555000e+01 8.311699e-13
1.560000e+01 -8.583086e-13
1.565000e+01 -2.298154e-12
1.570000e+01 -2.369025e-12
1.575000e+01 -7.260547e-13
1.580000e+01 1.777184e-12
1.585000e+01 3.471194e-12
1.590000e+01 2.944132e-12
1.595000e+01 1.472670e-13
1.600000e+01 -3.288939e-12
1.605000e+01 -4.928051e-12
1.610000e+01 -3.181663e-12
1.615000e+01 1.331920e-12
1.620000e+01 5.798079e-12
1.625000e+01 6.853608e-12
1.630000e+01 2.974039e-12
1.635000e+01 -4.024155e-12
1.640000e+01 -9.651690e-12
1.645000e+01 -9.511513e-12
1.650000e+01 -2.525021e-12
1.655000e+01 7.661297e-12
1.660000e+01 1.445017e-11
1.665000e+01 1.252059e-11
1.670000e+01 1.853861e-12
1.675000e+01 -1.140698e-11
1.680000e+01 -1.841556e-11
1.685000e+01 -1.358043e-11
1.690000e+01 9.262708e-13
1.695000e+01 1.564078e-11
1.700000e+01 1.970525e-11
1.705000e+01 8.715071e-12
1.710000e+01 -1.096147e-11
1.715000e+01 -2.516275e-11
1.720000e+01 -2.122285e-11
1.725000e+01 2.224792e-12
1.730000e+01 3.204934e-11
1.735000e+01 4.747280e-11
1.740000e+01 3.364303e-11
1.745000e+01 -6.783626e-12
1.750000e+01 -5.263289e-11
1.755000e+01 -7.599854e-11
1.760000e+01 -6.018620e-11
1.765000e+01 -1.191226e-11
1.770000e+01 4.150253e-11
1.775000e+01 6.951983e-11
1.780000e+01 5.933752e-11
1.785000e+01 2.552987e-11
1.790000e+01 5.512066e-14
1.795000e+01 7.845046e-12
1.800000e+01 4.464370e-11
1.805000e+01 7.440774e-11
1.810000e+01 5.148298e-11
1.815000e+01 -4.488138e-11
1.820000e+01 -1.871095e-10
1.825000e+01 -3.057878e-10
1.830000e+01 -3.260370e-10
1.835000e+01 -2.125695e-10
1.840000e+01 6.159153e-12
1.845000e+01 2.523829e-10
1.850000e+01 4.439471e-10
1.855000e+01 5.393673e-10
1.860000e+01 5.506751e-10
1.865000e+01 5.136718e-10
1.870000e+01 4.373941e-10
1.875000e+01 2.739876e-10
1.880000e+01 -5.962069e-11
1.885000e+01 -6.124926e-10
1.890000e+01 -1.325491e-09
1.895000e+01 -2.007505e-09
1.900000e+01 -2.391495e-09
1.905000e+01 -2.248675e-09
1.910000e+01 -1.496615e-09
1.915000e+01 -2.347687e-10
1.920000e+01 1.315058e-09
1.925000e+01 2.922294e-09
1.930000e+01 4.435151e-09
1.935000e+01 5.778185e-09
1.940000e+01 6.860851e-09
1.945000e+01 7.468911e-09
1.950000e+01 7.235034e-09
1.955000e+01 5.739301e-09
1.960000e+01 2.699125e-09
1.965000e+01 -1.866996e-09
1.970000e+01 -7.619580e-09
1.975000e+01 -1.405831e-08
1.980000e+01 -2.078163e-08
1.985000e+01 -2.769209e-08
1.990000e+01 -3.502070e-08
1.995000e+01 -4.315957e-08
2.000000e+01 -5.242374e-08
2.005000e+01 -6.291661e-08
2.010000e+01 -7.460581e-08
2.015000e+01 -8.756516e-08
2.020000e+01 -1.022078e-07
2.025000e+01 -1.193223e-07
2.030000e+01 -1.398476e-07
2.035000e+01 -1.645118e-07
2.040000e+01 -1.935769e-07
2.045000e+01 -2.268910e-07
2.050000e+01 -2.642617e-07
2.055000e+01 -3.059422e-07
2.060000e+01 -3.529296e-07
2.065000e+01 -4.068755e-07
2.070000e+01 -4.696542e-07
2.075000e+01 -5.428657e-07
2.080000e+01 -6.276032e-07
2.085000e+01 -7.246476e-07
2.090000e+01 -8.349684e-07
2.095000e+01 -9.601968e-07
2.100000e+01 -1.102754e-06
2.105000e+01 -1.265550e-06
2.110000e+01 -1.451466e-06
2.115000e+01 -1.663000e-06
2.120000e+01 -1.902353e-06
2.125000e+01 -2.171925e-06
2.130000e+01 -2.474929e-06
2.135000e+01 -2.815701e-06
2.140000e+01 -3.199537e-06
2.145000e+01 -3.632172e-06
2.150000e+01 -4.119292e-06
2.155000e+01 -4.666443e-06
2.160000e+01 -5.279403e-06
2.165000e+01 -5.964759e-06
2.170000e+01 -6.730263e-06
2.175000e+01 -7.584723e-06
2.180000e+01 -8.537489e-06
2.185000e+01 -9.597977e-06
2.190000e+01 -1.077561e-05
2.195000e+01 -1.208036e-05
2.200000e+01 -1.352352e-05
2.205000e+01 -1.511826e-05
2.210000e+01 -1.687947e-05
2.215000e+01 -1.882310e-05
2.220000e+01 -2.096517e-05
2.225000e+01 -2.332133e-05
2.230000e+01 -2.590724e-05
2.235000e+01 -2.873937e-05
2.240000e+01 -3.183595e-05
2.245000e+01 -3.521730e-05
2.250000e+01 -3.890523e-05
2.255000e+01 -4.292226e-05
2.260000e+01 -4.729087e-05
2.265000e+01 -5.203346e-05
2.270000e+01 -5.717294e-05
2.275000e+01 -6.273350e-05
2.280000e+01 -6.874056e-05
2.285000e+01 -7.522018e-05
2.290000e+01 -8.219774e-05
2.295000e+01 -8.969726e-05
2.300000e+01 -9.774139e-05
2.305000e+01 -1.063524e-04
2.310000e+01 -1.155533e-04
2.315000e+01 -1.253687e-04
2.320000e+01 -1.358237e-04
2.325000e+01 -1.469418e-04
2.330000e+01 -1.587432e-04
2.335000e+01 -1.712435e-04
2.340000e+01 -1.844540e-04
2.345000e+01 -1.983834e-04
2.350000e+01 -2.130392e-04
2.355000e+01 -2.284284e-04
2.360000e+01 -2.445562e-04
2.365000e+01 -2.614241e-04
2.370000e+01 -2.790276e-04
2.375000e+01 -2.973545e-04
2.380000e+01 -3.163857e-04
2.385000e+01 -3.360957e-04
2.390000e+01 -3.564541e-04
2.395000e+01 -3.774251e-04
2.400000e+01 -3.989683e-04
2.405000e+01 -4.210358e-04
2.410000e+01 -4.435728e-04
2.415000e+01 -4.665158e-04
2.420000e+01 -4.897928e-04
2.425000e+01 -5.133238e-04
2.430000e+01 -5.370203e-04
2.435000e+01 -5.607849e-04
2.440000e+01 -5.845121e-04
2.445000e+01 -6.080870e-04
2.450000e+01 -6.313875e-04
2.455000e+01 -6.542843e-04
2.460000e+01 -6.766417e-04
2.465000e+01 -6.983177e-04
2.470000e+01 -7.191638e-04
2.475000e+01 -7.390248e-04
2.480000e+01 -7.577381e-04
2.485000e+01 -7.751360e-04
2.490000e+01 -7.910452e-04
2.495000e+01 -8.052895e-04
2.500000e+01 -8.176908e-04
2.505000e+01 -8.280709e-04
2.510000e+01 -8.362519e-04
2.515000e+01 -8.420584e-04
2.520000e+01 -8.453184e-04
2.525000e+01 -8.458649e-04
2.530000e+01 -8.435361e-04
2.535000e+01 -8.381763e-04
2.540000e+01 -8.296363e-04
2.545000e+01 -8.177748e-04
2.550000e+01 -8.024604e-04
2.555000e+01 -7.835744e-04
2.560000e+01 -7.610142e-04
2.565000e+01 -7.346965e-04
2.570000e+01 -7.045565e-04
2.575000e+01 -6.705499e-04
2.580000e+01 -6.326503e-04
2.585000e+01 -5.908499e-04
2.590000e+01 -5.451596e-04
2.595000e+01 -4.956112e-04
2.600000e+01 -4.422601e-04
2.605000e+01 -3.851873e-04
2.610000e+01 -3.245010e-04
2.615000e+01 -2.603363e-04
2.620000e+01 -1.928540e-04
2.625000e+01 -1.222390e-04
2.630000e+01 -4.869888e-05
2.635000e+01 2.753661e-05
2.640000e+01 1.062159e-04
2.645000e+01 1.870654e-04
2.650000e+01 2.697890e-04
2.655000e+01 3.540702e-04
2.660000e+01 4.395724e-04
2.665000e+01 5.259422e-04
2.670000e+01 6.128119e-04
2.675000e+01 6.998031e-04
2.680000e+01 7.865275e-04
2.685000e+01 8.725907e-04
2.690000e+01 9.575930e-04
2.695000e+01 1.041131e-03
2.700000e+01 1.122799e-03
2.705000e+01 1.202196e-03
2.710000e+01 1.278922e-03
2.715000e+01 1.352589e-03
2.720000e+01 1.422819e-03
2.725000e+01 1.489249e-03
2.730000e+01 1.551532e-03
2.735000e+01 1.609341e-03
2.740000e+01 1.662369e-03
2.745000e+01 1.710333e-03
2.750000e+01 1.752973e-03
2.755000e+01 1.790058e-03
2.760000e+01 1.821387e-03
2.765000e+01 1.846788e-03
2.770000e+01 1.866123e-03
2.775000e+01 1.879287e-03
2.780000e+01 1.886207e-03
2.785000e+01 1.886847e-03
2.790000e+01 1.881206e-03
2.795000e+01 1.869317e-03
2.800000e+01 1.851249e-03
2.805000e+01 1.827106e-03
2.810000e+01 1.797022e-03
2.815000e+01 1.761164e-03
2.820000e+01 1.719729e-03
2.825000e+01 1.672941e-03
2.830000e+01 1.621054e-03
2.835000e+01 1.564347e-03
2.840000e+01 1.503126e-03
2.845000e+01 1.437718e-03
2.850000e+01 1.368468e-03
2.855000e+01 1.295740e-03
2.860000e+01 1.219907e-03
2.865000e+01 1.141354e-03
2.870000e+01 1.060472e-03
2.875000e+01 9.776566e-04
2.880000e+01 8.933094e-04
2.885000e+01 8.078323e-04
2.890000e+01 7.216263e-04
2.895000e+01 6.350869e-04
2.900000e+01 5.486029e-04
2.905000e+01 4.625511e-04
2.910000e+01 3.772964e-04
2.915000e+01 2.931885e-04
2.920000e+01 2.105610e-04
2.925000e+01 1.297307e-04
2.930000e+01 5.099498e-05
2.935000e+01 -2.536964e-05
2.940000e+01 -9.910876e-05
2.945000e+01 -1.699913e-04
