-8.000000e+00 0.000000e+00
-7.990000e+00 0.000000e+00
-7.980000e+00 0.000000e+00
-7.970000e+00 0.000000e+00
-7.960000e+00 0.000000e+00
-7.950000e+00 0.000000e+00
-7.940000e+00 0.000000e+00
-7.930000e+00 0.000000e+00
-7.920000e+00 0.000000e+00
-7.910000e+00 0.000000e+00
-7.900000e+00 0.000000e+00
-7.890000e+00 0.000000e+00
-7.880000e+00 0.000000e+00
-7.870000e+00 0.000000e+00
-7.860000e+00 0.000000e+00
-7.850000e+00 0.000000e+00
-7.840000e+00 0.000000e+00
-7.830000e+00 0.000000e+00
-7.820000e+00 0.000000e+00
-7.810000e+00 0.000000e+00
-7.800000e+00 0.000000e+00
-7.790000e+00 0.000000e+00
-7.780000e+00 0.000000e+00
-7.770000e+00 0.000000e+00
-7.760000e+00 0.000000e+00
-7.750000e+00 0.000000e+00
-7.740000e+00 0.000000e+00
-7.730000e+00 0.000000e+00
-7.720000e+00 0.000000e+00
-7.710000e+00 0.000000e+00
-7.700000e+00 0.000000e+00
-7.690000e+00 0.000000e+00
-7.680000e+00 0.000000e+00
-7.670000e+00 0.000000e+00
-7.660000e+00 0.000000e+00
-7.650000e+00 0.000000e+00
-7.640000e+00 0.000000e+00
-7.630000e+00 0.000000e+00
-7.620000e+00 0.000000e+00
-7.610000e+00 0.000000e+00
-7.600000e+00 0.000000e+00
-7.590000e+00 0.000000e+00
-7.580000e+00 0.000000e+00
-7.570000e+00 0.000000e+00
-7.560000e+00 0.000000e+00
-7.550000e+00 0.000000e+00
-7.540000e+00 0.000000e+00
-7.530000e+00 0.000000e+00
-7.520000e+00 0.000000e+00
-7.510000e+00 0.000000e+00
-7.500000e+00 0.000000e+00
-7.490000e+00 0.000000e+00
-7.480000e+00 0.000000e+00
-7.470000e+00 0.000000e+00
-7.460000e+00 0.000000e+00
-7.450000e+00 0.000000e+00
-7.440000e+00 0.000000e+00
-7.430000e+00 0.000000e+00
-7.420000e+00 0.000000e+00
-7.410000e+00 0.000000e+00
-7.400000e+00 0.000000e+00
-7.390000e+00 0.000000e+00
-7.380000e+00 0.000000e+00
-7.370000e+00 0.000000e+00
-7.360000e+00 0.000000e+00
-7.350000e+00 0.000000e+00
-7.340000e+00 0.000000e+00
-7.330000e+00 0.000000e+00
-7.320000e+00 0.000000e+00
-7.310000e+00 0.000000e+00
-7.300000e+00 0.000000e+00
-7.290000e+00 0.000000e+00
-7.280000e+00 0.000000e+00
-7.270000e+00 0.000000e+00
-7.260000e+00 0.000000e+00
-7.250000e+00 0.000000e+00
-7.240000e+00 0.000000e+00
-7.230000e+00 0.000000e+00
-7.220000e+00 0.000000e+00
-7.210000e+00 0.000000e+00
-7.200000e+00 0.000000e+00
-7.190000e+00 0.000000e+00
-7.180000e+00 0.000000e+00
-7.170000e+00 0.000000e+00
-7.160000e+00 0.000000e+00
-7.150000e+00 0.000000e+00
-7.140000e+00 0.000000e+00
-7.130000e+00 0.000000e+00
-7.120000e+00 0.000000e+00
-7.110000e+00 0.000000e+00
-7.100000e+00 0.000000e+00
-7.090000e+00 0.000000e+00
-7.080000e+00 0.000000e+00
-7.070000e+00 0.000000e+00
-7.060000e+00 0.000000e+00
-7.050000e+00 0.000000e+00
-7.040000e+00 0.000000e+00
-7.030000e+00 0.000000e+00
-7.020000e+00 0.000000e+00
-7.010000e+00 0.000000e+00
-7.000000e+00 0.000000e+00
-6.990000e+00 0.000000e+00
-6.980000e+00 0.000000e+00
-6.970000e+00 0.000000e+00
-6.960000e+00 0.000000e+00
-6.950000e+00 0.000000e+00
-6.940000e+00 0.000000e+00
-6.930000e+00 0.000000e+00
-6.920000e+00 0.000000e+00
-6.910000e+00 0.000000e+00
-6.900000e+00 0.000000e+00
-6.890000e+00 0.000000e+00
-6.880000e+00 0.000000e+00
-6.870000e+00 0.000000e+00
-6.860000e+00 0.000000e+00
-6.850000e+00 0.000000e+00
-6.840000e+00 0.000000e+00
-6.830000e+00 0.000000e+00
-6.820000e+00 0.000000e+00
-6.810000e+00 0.000000e+00
-6.800000e+00 0.000000e+00
-6.790000e+00 0.000000e+00
-6.780000e+00 0.000000e+00
-6.770000e+00 0.000000e+00
-6.760000e+00 0.000000e+00
-6.750000e+00 0.000000e+00
-6.740000e+00 0.000000e+00
-6.730000e+00 0.000000e+00
-6.720000e+00 0.000000e+00
-6.710000e+00 0.000000e+00
-6.700000e+00 0.000000e+00
-6.690000e+00 0.000000e+00
-6.680000e+00 0.000000e+00
-6.670000e+00 0.000000e+00
-6.660000e+00 0.000000e+00
-6.650000e+00 0.000000e+00
-6.640000e+00 0.000000e+00
-6.630000e+00 0.000000e+00
-6.620000e+00 0.000000e+00
-6.610000e+00 0.000000e+00
-6.600000e+00 0.000000e+00
-6.590000e+00 0.000000e+00
-6.580000e+00 0.000000e+00
-6.570000e+00 0.000000e+00
-6.560000e+00 0.000000e+00
-6.550000e+00 0.000000e+00
-6.540000e+00 0.000000e+00
-6.530000e+00 0.000000e+00
-6.520000e+00 0.000000e+00
-6.510000e+00 0.000000e+00
-6.500000e+00 0.000000e+00
-6.490000e+00 0.000000e+00
-6.480000e+00 0.000000e+00
-6.470000e+00 0.000000e+00
-6.460000e+00 0.000000e+00
-6.450000e+00 0.000000e+00
-6.440000e+00 0.000000e+00
-6.430000e+00 0.000000e+00
-6.420000e+00 0.000000e+00
-6.410000e+00 0.000000e+00
-6.400000e+00 0.000000e+00
-6.390000e+00 0.000000e+00
-6.380000e+00 0.000000e+00
-6.370000e+00 0.000000e+00
-6.360000e+00 0.000000e+00
-6.350000e+00 0.000000e+00
-6.340000e+00 0.000000e+00
-6.330000e+00 0.000000e+00
-6.320000e+00 0.000000e+00
-6.310000e+00 0.000000e+00
-6.300000e+00 0.000000e+00
-6.290000e+00 0.000000e+00
-6.280000e+00 0.000000e+00
-6.270000e+00 0.000000e+00
-6.260000e+00 0.000000e+00
-6.250000e+00 2.802597e-45
-6.240000e+00 2.802597e-45
-6.230000e+00 1.401298e-45
-6.220000e+00 1.401298e-45
-6.210000e+00 2.802597e-45
-6.200000e+00 2.802597e-45
-6.190000e+00 4.203895e-45
-6.180000e+00 4.203895e-45
-6.170000e+00 4.203895e-45
-6.160000e+00 5.605194e-45
-6.150000e+00 5.605194e-45
-6.140000e+00 -4.203895e-45
-6.130000e+00 -7.006492e-45
-6.120000e+00 -7.006492e-45
-6.110000e+00 -7.006492e-45
-6.100000e+00 -9.809089e-45
-6.090000e+00 -1.681558e-44
-6.080000e+00 -1.821688e-44
-6.070000e+00 -1.821688e-44
-6.060000e+00 -2.242078e-44
-6.050000e+00 -2.522337e-44
-6.040000e+00 -2.662467e-44
-6.030000e+00 -2.942727e-44
-6.020000e+00 -2.802597e-44
-6.010000e+00 -3.082857e-44
-6.000000e+00 -3.503246e-44
-5.990000e+00 -3.923636e-44
-5.980000e+00 -3.222986e-44
-5.970000e+00 -3.082857e-44
-5.960000e+00 -2.242078e-44
-5.950000e+00 -1.261169e-44
-5.940000e+00 -2.802597e-45
-5.930000e+00 1.821688e-44
-5.920000e+00 4.063766e-44
-5.910000e+00 6.726233e-44
-5.900000e+00 9.668959e-44
-5.890000e+00 1.247156e-43
-5.880000e+00 1.625506e-43
-5.870000e+00 2.017870e-43
-5.860000e+00 2.438259e-43
-5.850000e+00 2.774571e-43
-5.840000e+00 3.236999e-43
-5.830000e+00 3.755480e-43
-5.820000e+00 4.119817e-43
-5.810000e+00 4.652311e-43
-5.800000e+00 5.016649e-43
-5.790000e+00 5.366973e-43
-5.780000e+00 5.493090e-43
-5.770000e+00 5.577168e-43
-5.760000e+00 5.563155e-43
-5.750000e+00 5.310921e-43
-5.740000e+00 4.792441e-43
-5.730000e+00 4.091792e-43
-5.720000e+00 2.970753e-43
-5.710000e+00 1.471363e-43
-5.700000e+00 -3.783506e-44
-5.690000e+00 -2.620428e-43
-5.680000e+00 -5.282895e-43
-5.670000e+00 -8.477856e-43
-5.660000e+00 -1.214926e-42
-5.650000e+00 -1.607289e-42
-5.640000e+00 -2.041692e-42
-5.630000e+00 -2.519535e-42
-5.620000e+00 -3.016996e-42
-5.610000e+00 -3.517259e-42
-5.600000e+00 -4.010516e-42
-5.590000e+00 -4.491162e-42
-5.580000e+00 -4.928367e-42
-5.570000e+00 -5.289902e-42
-5.560000e+00 -5.565958e-42
-5.550000e+00 -5.701883e-42
-5.540000e+00 -5.689272e-42
-5.530000e+00 -5.487485e-42
-5.520000e+00 -5.081108e-42
-5.510000e+00 -4.380459e-42
-5.500000e+00 -3.419168e-42
-5.490000e+00 -2.134178e-42
-5.480000e+00 -5.366973e-43
-5.470000e+00 1.423719e-42
-5.460000e+00 3.740066e-42
-5.450000e+00 6.388520e-42
-5.440000e+00 9.364878e-42
-5.430000e+00 1.262570e-41
-5.420000e+00 1.612614e-41
-5.410000e+00 1.978213e-41
-5.400000e+00 2.350118e-41
-5.390000e+00 2.718239e-41
-5.380000e+00 3.067582e-41
-5.370000e+00 3.383155e-41
-5.360000e+00 3.648000e-41
-5.350000e+00 3.843201e-41
-5.340000e+00 3.947598e-41
-5.330000e+00 3.940872e-41
-5.320000e+00 3.800742e-41
-5.310000e+00 3.508291e-41
-5.300000e+00 3.042219e-41
-5.290000e+00 2.388793e-41
-5.280000e+00 1.531759e-41
-5.270000e+00 4.627088e-42
-5.260000e+00 -8.194793e-42
-5.250000e+00 -2.313404e-41
-5.240000e+00 -4.003089e-41
-5.230000e+00 -5.870740e-41
-5.220000e+00 -7.881603e-41
-5.210000e+00 -9.997284e-41
-5.200000e+00 -1.216131e-40
-5.190000e+00 -1.430838e-40
-5.180000e+00 -1.636170e-40
-5.170000e+00 -1.823384e-40
-5.160000e+00 -1.982879e-40
-5.150000e+00 -2.104134e-40
-5.140000e+00 -2.176329e-40
-5.130000e+00 -2.188114e-40
-5.120000e+00 -2.128488e-40
-5.110000e+00 -1.987167e-40
-5.100000e+00 -1.754594e-40
-5.090000e+00 -1.423033e-40
-5.080000e+00 -9.867383e-41
-5.070000e+00 -4.427683e-41
-5.060000e+00 2.084011e-41
-5.050000e+00 9.628182e-41
-5.040000e+00 1.811893e-40
-5.030000e+00 2.742075e-40
-5.020000e+00 3.734853e-40
-5.010000e+00 4.766110e-40
-5.000000e+00 5.806715e-40
-4.990000e+00 6.821773e-40
-4.980000e+00 7.771587e-40
-4.970000e+00 8.612408e-40
-4.960000e+00 9.296845e-40
-4.950000e+00 9.775262e-40
-4.940000e+00 9.997228e-40
-4.930000e+00 9.913206e-40
-4.920000e+00 9.476225e-40
-4.910000e+00 8.644862e-40
-4.900000e+00 7.384759e-40
-4.890000e+00 5.671685e-40
-4.880000e+00 3.493773e-40
-4.870000e+00 8.541194e-41
-4.860000e+00 -2.226677e-40
-4.850000e+00 -5.709142e-40
-4.840000e+00 -9.532137e-40
-4.830000e+00 -1.361268e-39
-4.820000e+00 -1.784448e-39
-4.810000e+00 -2.209940e-39
-4.800000e+00 -2.622743e-39
-4.790000e+00 -3.005953e-39
-4.780000e+00 -3.341084e-39
-4.770000e+00 -3.608492e-39
-4.760000e+00 -3.787928e-39
-4.750000e+00 -3.859232e-39
-4.740000e+00 -3.803127e-39
-4.730000e+00 -3.602057e-39
-4.720000e+00 -3.241114e-39
-4.710000e+00 -2.709175e-39
-4.700000e+00 -1.999747e-39
-4.690000e+00 -1.112098e-39
-4.680000e+00 -5.218155e-41
-4.670000e+00 1.166524e-39
-4.660000e+00 2.522348e-39
-4.650000e+00 3.984928e-39
-4.640000e+00 5.514950e-39
-4.630000e+00 7.064317e-39
-4.620000e+00 8.576612e-39
-4.610000e+00 9.987910e-39
-4.600000e+00 1.122811e-38
-4.590000e+00 1.222274e-38
-4.580000e+00 1.289514e-38
-4.570000e+00 1.316921e-38
-4.560000e+00 1.297252e-38
-4.550000e+00 1.223973e-38
-4.540000e+00 1.091645e-38
-4.530000e+00 8.963197e-39
-4.520000e+00 6.359354e-39
-4.510000e+00 3.107192e-39
-4.500000e+00 -7.645120e-40
-4.490000e+00 -5.197237e-39
-4.480000e+00 -1.010023e-38
-4.470000e+00 -1.534873e-38
-4.460000e+00 -2.078348e-38
-4.450000e+00 -2.621153e-38
-4.440000e+00 -3.140820e-38
-4.430000e+00 -3.612145e-38
-4.420000e+00 -4.007696e-38
-4.410000e+00 -4.298626e-38
-4.400000e+00 -4.455567e-38
-4.390000e+00 -4.449765e-38
-4.380000e+00 -4.254383e-38
-4.370000e+00 -3.845903e-38
-4.360000e+00 -3.205670e-38
-4.350000e+00 -2.321483e-38
-4.340000e+00 -1.189214e-38
-4.330000e+00 1.856513e-39
-4.320000e+00 1.786588e-38
-4.310000e+00 3.584807e-38
-4.300000e+00 5.538333e-38
-4.290000e+00 7.591463e-38
-4.280000e+00 9.674681e-38
-4.270000e+00 1.170513e-37
-4.260000e+00 1.358770e-37
-4.250000e+00 1.521684e-37
-4.240000e+00 1.647907e-37
-4.230000e+00 1.725625e-37
-4.220000e+00 1.742967e-37
-4.210000e+00 1.688474e-37
-4.200000e+00 1.551652e-37
-4.190000e+00 1.323563e-37
-4.180000e+00 9.974659e-38
-4.170000e+00 5.694833e-38
-4.160000e+00 3.925001e-39
-4.150000e+00 -5.894454e-38
-4.140000e+00 -1.308088e-37
-4.130000e+00 -2.102956e-37
-4.120000e+00 -2.954767e-37
-4.110000e+00 -3.838467e-37
-4.100000e+00 -4.723268e-37
-4.090000e+00 -5.572855e-37
-4.080000e+00 -6.345881e-37
-4.070000e+00 -6.996811e-37
-4.060000e+00 -7.476961e-37
-4.050000e+00 -7.735906e-37
-4.040000e+00 -7.723275e-37
-4.030000e+00 -7.390702e-37
-4.020000e+00 -6.694180e-37
-4.010000e+00 -5.596552e-37
-4.000000e+00 -4.070204e-37
-3.990000e+00 -2.099842e-37
-3.980000e+00 3.147448e-38
-3.970000e+00 3.156043e-37
-3.960000e+00 6.386424e-37
-3.950000e+00 9.946109e-37
-3.940000e+00 1.375176e-36
-3.930000e+00 1.769556e-36
-3.920000e+00 2.164537e-36
-3.910000e+00 2.544559e-36
-3.900000e+00 2.891929e-36
-3.890000e+00 3.187162e-36
-3.880000e+00 3.409408e-36
-3.870000e+00 3.537070e-36
-3.860000e+00 3.548495e-36
-3.850000e+00 3.422835e-36
-3.840000e+00 3.140975e-36
-3.830000e+00 2.686616e-36
-3.820000e+00 2.047353e-36
-3.810000e+00 1.215858e-36
-3.800000e+00 1.910227e-37
-3.790000e+00 -1.020944e-36
-3.780000e+00 -2.405498e-36
-3.770000e+00 -3.938911e-36
-3.760000e+00 -5.587626e-36
-3.750000e+00 -7.307906e-36
-3.740000e+00 -9.045767e-36
-3.730000e+00 -1.073739e-35
-3.720000e+00 -1.230986e-35
-3.710000e+00 -1.368248e-35
-3.700000e+00 -1.476863e-35
-3.690000e+00 -1.547798e-35
-3.680000e+00 -1.571945e-35
-3.670000e+00 -1.540463e-35
-3.660000e+00 -1.445148e-35
-3.650000e+00 -1.278868e-35
-3.640000e+00 -1.036009e-35
-3.630000e+00 -7.129538e-36
-3.620000e+00 -3.085386e-36
-3.610000e+00 1.754851e-36
-3.600000e+00 7.340357e-36
-3.590000e+00 1.358343e-35
-3.580000e+00 2.035675e-35
-3.570000e+00 2.749172e-35
-3.560000e+00 3.477808e-35
-3.550000e+00 4.196509e-35
-3.540000e+00 4.876446e-35
-3.530000e+00 5.485520e-35
-3.520000e+00 5.989050e-35
-3.510000e+00 6.350685e-35
-3.500000e+00 6.533508e-35
-3.490000e+00 6.501334e-35
-3.480000e+00 6.220281e-35
-3.470000e+00 5.660320e-35
-3.460000e+00 4.797187e-35
-3.450000e+00 3.614123e-35
-3.440000e+00 2.103841e-35
-3.430000e+00 2.702527e-36
-3.420000e+00 -1.869834e-35
-3.410000e+00 -4.285245e-35
-3.400000e+00 -6.929326e-35
-3.390000e+00 -9.739220e-35
-3.380000e+00 -1.263563e-34
-3.370000e+00 -1.552327e-34
-3.360000e+00 -1.829176e-34
-3.350000e+00 -2.081757e-34
-3.340000e+00 -2.296654e-34
-3.330000e+00 -2.459732e-34
-3.320000e+00 -2.556544e-34
-3.310000e+00 -2.572870e-34
-3.300000e+00 -2.495255e-34
-3.290000e+00 -2.311664e-34
-3.280000e+00 -2.012170e-34
-3.270000e+00 -1.589658e-34
-3.260000e+00 -1.040559e-34
-3.250000e+00 -3.655442e-35
-3.240000e+00 4.298264e-35
-3.230000e+00 1.334529e-34
-3.220000e+00 2.331630e-34
-3.210000e+00 3.397990e-34
-3.200000e+00 4.504183e-34
-3.190000e+00 5.614562e-34
-3.180000e+00 6.687683e-34
-3.170000e+00 7.676982e-34
-3.160000e+00 8.531648e-34
-3.150000e+00 9.198022e-34
-3.140000e+00 9.621061e-34
-3.130000e+00 9.746298e-34
-3.120000e+00 9.521993e-34
-3.110000e+00 8.901606e-34
-3.100000e+00 7.846214e-34
-3.090000e+00 6.327459e-34
-3.080000e+00 4.330073e-34
-3.070000e+00 1.854639e-34
-3.060000e+00 -1.079909e-34
-3.050000e+00 -4.434166e-34
-3.040000e+00 -8.146503e-34
-3.030000e+00 -1.213188e-33
-3.020000e+00 -1.628149e-33
-3.010000e+00 -2.046302e-33
-3.000000e+00 -2.452213e-33
-2.990000e+00 -2.828486e-33
-2.980000e+00 -3.156092e-33
-2.970000e+00 -3.414893e-33
-2.960000e+00 -3.584166e-33
-2.950000e+00 -3.643348e-33
-2.940000e+00 -3.572843e-33
-2.930000e+00 -3.354886e-33
-2.920000e+00 -2.974558e-33
-2.910000e+00 -2.420745e-33
-2.900000e+00 -1.687194e-33
-2.890000e+00 -7.735346e-34
-2.880000e+00 3.138523e-34
-2.870000e+00 1.560954e-33
-2.860000e+00 2.945494e-33
-2.850000e+00 4.436475e-33
-2.840000e+00 5.993988e-33
-2.830000e+00 7.569327e-33
-2.820000e+00 9.105488e-33
-2.810000e+00 1.053797e-32
-2.800000e+00 1.179611e-32
-2.790000e+00 1.280477e-32
-2.780000e+00 1.348644e-32
-2.770000e+00 1.376391e-32
-2.760000e+00 1.356301e-32
-2.750000e+00 1.281618e-32
-2.740000e+00 1.146583e-32
-2.730000e+00 9.468049e-33
-2.720000e+00 6.796535e-33
-2.710000e+00 3.446118e-33
-2.700000e+00 -5.635229e-34
-2.690000e+00 -5.184993e-33
-2.680000e+00 -1.034057e-32
-2.670000e+00 -1.592044e-32
-2.660000e+00 -2.178179e-32
-2.650000e+00 -2.774922e-32
-2.640000e+00 -3.361613e-32
-2.630000e+00 -3.914769e-32
-2.620000e+00 -4.408516e-32
-2.610000e+00 -4.815223e-32
-2.600000e+00 -5.106196e-32
-2.590000e+00 -5.252639e-32
-2.580000e+00 -5.226716e-32
-2.570000e+00 -5.002610e-32
-2.560000e+00 -4.558008e-32
-2.550000e+00 -3.875223e-32
-2.540000e+00 -2.942725e-32
-2.530000e+00 -1.756410e-32
-2.520000e+00 -3.208666e-33
-2.510000e+00 1.349363e-32
-2.500000e+00 3.228947e-32
-2.490000e+00 5.281009e-32
-2.480000e+00 7.456731e-32
-2.470000e+00 9.695408e-32
-2.460000e+00 1.192480e-31
-2.450000e+00 1.406216e-31
-2.440000e+00 1.601555e-31
-2.430000e+00 1.768598e-31
-2.420000e+00 1.896987e-31
-2.410000e+00 1.976211e-31
-2.400000e+00 1.995992e-31
-2.390000e+00 1.946644e-31
-2.380000e+00 1.819566e-31
-2.370000e+00 1.607684e-31
-2.360000e+00 1.305937e-31
-2.350000e+00 9.117576e-32
-2.340000e+00 4.255374e-32
-2.330000e+00 -1.489552e-32
-2.320000e+00 -8.042242e-32
-2.310000e+00 -1.528769e-31
-2.300000e+00 -2.306911e-31
-2.290000e+00 -3.118751e-31
-2.280000e+00 -3.940282e-31
-2.270000e+00 -4.743637e-31
-2.260000e+00 -5.497562e-31
-2.250000e+00 -6.168005e-31
-2.240000e+00 -6.718955e-31
-2.230000e+00 -7.113498e-31
-2.220000e+00 -7.314922e-31
-2.210000e+00 -7.288080e-31
-2.200000e+00 -7.000917e-31
-2.190000e+00 -6.426044e-31
-2.180000e+00 -5.542270e-31
-2.170000e+00 -4.336387e-31
-2.160000e+00 -2.804720e-31
-2.150000e+00 -9.545129e-32
-2.140000e+00 1.194645e-31
-2.130000e+00 3.609877e-31
-2.120000e+00 6.244262e-31
-2.110000e+00 9.036567e-31
-2.100000e+00 1.191142e-30
-2.090000e+00 1.477990e-30
-2.080000e+00 1.754095e-30
-2.070000e+00 2.008314e-30
-2.060000e+00 2.228715e-30
-2.050000e+00 2.402902e-30
-2.040000e+00 2.518361e-30
-2.030000e+00 2.562924e-30
-2.020000e+00 2.525199e-30
-2.010000e+00 2.395114e-30
-2.000000e+00 2.164426e-30
-1.990000e+00 1.827278e-30
-1.980000e+00 1.380716e-30
-1.970000e+00 8.252041e-31
-1.960000e+00 1.650468e-31
-1.950000e+00 -5.912152e-31
-1.940000e+00 -1.430536e-30
-1.930000e+00 -2.335224e-30
-1.920000e+00 -3.282923e-30
-1.910000e+00 -4.246767e-30
-1.900000e+00 -5.195705e-30
-1.890000e+00 -6.095042e-30
-1.880000e+00 -6.907127e-30
-1.870000e+00 -7.592300e-30
-1.860000e+00 -8.110000e-30
-1.850000e+00 -8.420035e-30
-1.840000e+00 -8.484019e-30
-1.830000e+00 -8.266992e-30
-1.820000e+00 -7.739055e-30
-1.810000e+00 -6.877059e-30
-1.800000e+00 -5.666317e-30
-1.790000e+00 -4.102244e-30
-1.780000e+00 -2.191789e-30
-1.770000e+00 4.525341e-32
-1.760000e+00 2.575250e-30
-1.750000e+00 5.350109e-30
-1.740000e+00 8.306994e-30
-1.730000e+00 1.136870e-29
-1.720000e+00 1.444426e-29
-1.710000e+00 1.743048e-29
-1.700000e+00 2.021382e-29
-1.690000e+00 2.267289e-29
-1.680000e+00 2.468181e-29
-1.670000e+00 2.611380e-29
-1.660000e+00 2.684543e-29
-1.650000e+00 2.676124e-29
-1.640000e+00 2.575903e-29
-1.630000e+00 2.375456e-29
-1.620000e+00 2.068711e-29
-1.610000e+00 1.652442e-29
-1.600000e+00 1.126741e-29
-1.590000e+00 4.954379e-30
-1.580000e+00 -2.335502e-30
-1.570000e+00 -1.047993e-29
-1.560000e+00 -1.931183e-29
-1.550000e+00 -2.861977e-29
-1.540000e+00 -3.814926e-29
-1.530000e+00 -4.760626e-29
-1.520000e+00 -5.666189e-29
-1.510000e+00 -6.495953e-29
-1.500000e+00 -7.212324e-29
-1.490000e+00 -7.776820e-29
-1.480000e+00 -8.151244e-29
-1.470000e+00 -8.299031e-29
-1.460000e+00 -8.186678e-29
-1.450000e+00 -7.785267e-29
-1.440000e+00 -7.071967e-29
-1.430000e+00 -6.031602e-29
-1.420000e+00 -4.658069e-29
-1.410000e+00 -2.955706e-29
-1.400000e+00 -9.403840e-30
-1.390000e+00 1.359586e-29
-1.380000e+00 3.902897e-29
-1.370000e+00 6.635004e-29
-1.360000e+00 9.488365e-29
-1.350000e+00 1.238310e-28
-1.340000e+00 1.522817e-28
-1.330000e+00 1.792298e-28
-1.320000e+00 2.035967e-28
-1.310000e+00 2.242576e-28
-1.300000e+00 2.400734e-28
-1.290000e+00 2.499260e-28
-1.280000e+00 2.527597e-28
-1.270000e+00 2.476210e-28
-1.260000e+00 2.337035e-28
-1.250000e+00 2.103928e-28
-1.240000e+00 1.773086e-28
-1.230000e+00 1.343445e-28
-1.220000e+00 8.170429e-29
-1.210000e+00 1.993315e-29
-1.200000e+00 -5.006172e-29
-1.190000e+00 -1.269973e-28
-1.180000e+00 -2.092126e-28
-1.170000e+00 -2.946778e-28
-1.160000e+00 -3.810193e-28
-1.150000e+00 -4.655536e-28
-1.140000e+00 -5.453401e-28
-1.130000e+00 -6.172475e-28
-1.120000e+00 -6.780284e-28
-1.110000e+00 -7.244170e-28
-1.100000e+00 -7.532260e-28
-1.090000e+00 -7.614606e-28
-1.080000e+00 -7.464367e-28
-1.070000e+00 -7.059015e-28
-1.060000e+00 -6.381523e-28
-1.050000e+00 -5.421577e-28
-1.040000e+00 -4.176607e-28
-1.030000e+00 -2.652758e-28
-1.020000e+00 -8.657236e-29
-1.010000e+00 1.158812e-28
-1.000000e+00 3.384730e-28
-9.900002e-01 5.765562e-28
-9.800000e-01 8.244766e-28
-9.700003e-01 1.075637e-27
-9.600000e-01 1.322607e-27
-9.500003e-01 1.557257e-27
-9.400001e-01 1.770942e-27
-9.300003e-01 1.954704e-27
-9.200001e-01 2.099538e-27
-9.100003e-01 2.196638e-27
-9.000001e-01 2.237712e-27
-8.900003e-01 2.215281e-27
-8.800001e-01 2.122999e-27
-8.700004e-01 1.955973e-27
-8.600001e-01 1.711060e-27
-8.500004e-01 1.387144e-27
-8.400002e-01 9.853876e-28
-8.299999e-01 5.094338e-28
-8.200002e-01 -3.445028e-29
-8.099999e-01 -6.372924e-28
-8.000002e-01 -1.287413e-27
-7.900000e-01 -1.970490e-27
-7.800002e-01 -2.669734e-27
-7.700000e-01 -3.366133e-27
-7.600002e-01 -4.038801e-27
-7.500000e-01 -4.665412e-27
-7.400002e-01 -5.222728e-27
-7.300000e-01 -5.687195e-27
-7.200003e-01 -6.035596e-27
-7.100000e-01 -6.245795e-27
-7.000003e-01 -6.297474e-27
-6.900001e-01 -6.172917e-27
-6.800003e-01 -5.857780e-27
-6.700001e-01 -5.341811e-27
-6.600003e-01 -4.619582e-27
-6.500001e-01 -3.691053e-27
-6.400003e-01 -2.562148e-27
-6.300001e-01 -1.245039e-27
-6.200004e-01 2.414884e-28
-6.100001e-01 1.872092e-27
-6.000004e-01 3.614898e-27
-5.900002e-01 5.431877e-27
-5.800004e-01 7.279314e-27
-5.700002e-01 9.108576e-27
-5.599999e-01 1.086700e-26
-5.500002e-01 1.249908e-26
-5.400000e-01 1.394765e-26
-5.300002e-01 1.515549e-26
-5.200000e-01 1.606676e-26
-5.100002e-01 1.662876e-26
-5.000000e-01 1.679361e-26
-4.900002e-01 1.651999e-26
-4.800000e-01 1.577481e-26
-4.700003e-01 1.453475e-26
-4.600000e-01 1.278789e-26
-4.500003e-01 1.053466e-26
-4.400001e-01 7.789146e-27
-4.300003e-01 4.579672e-27
-4.200001e-01 9.491275e-28
-4.100003e-01 -3.044779e-27
-4.000001e-01 -7.330046e-27
-3.900003e-01 -1.182107e-26
-3.800001e-01 -1.641978e-26
-3.700004e-01 -2.101720e-26
-3.600001e-01 -2.549543e-26
-3.500004e-01 -2.972991e-26
-3.400002e-01 -3.359209e-26
-3.300004e-01 -3.695232e-26
-3.200002e-01 -3.968295e-26
-3.099999e-01 -4.166163e-26
-3.000002e-01 -4.277482e-26
-2.900000e-01 -4.292088e-26
-2.800002e-01 -4.201357e-26
-2.700000e-01 -3.998522e-26
-2.600002e-01 -3.678938e-26
-2.500000e-01 -3.240374e-26
-2.400002e-01 -2.683203e-26
-2.300000e-01 -2.010594e-26
-2.200003e-01 -1.228629e-26
-2.100000e-01 -3.463631e-27
-2.000003e-01 6.241466e-27
-1.900001e-01 1.667918e-26
-1.800003e-01 2.767150e-26
-1.700001e-01 3.901391e-26
-1.600003e-01 5.047798e-26
-1.500001e-01 6.181425e-26
-1.400003e-01 7.275562e-26
-1.300001e-01 8.302174e-26
-1.200004e-01 9.232321e-26
-1.100001e-01 1.003666e-25
-1.000004e-01 1.068599e-25
-9.000015e-02 1.115178e-25
-8.000040e-02 1.140683e-25
-7.000017e-02 1.142570e-25
-5.999994e-02 1.118558e-25
-5.000019e-02 1.066670e-25
-3.999996e-02 9.853095e-26
-3.000021e-02 8.733143e-26
-1.999998e-02 7.300259e-26
-1.000023e-02 5.553466e-26
0.000000e+00 3.497974e-26
1.000023e-02 1.145788e-26
1.999950e-02 -1.483845e-26
2.999973e-02 -4.363902e-26
3.999996e-02 -7.459244e-26
5.000019e-02 -1.072626e-25
5.999947e-02 -1.411267e-25
6.999969e-02 -1.755745e-25
7.999992e-02 -2.099094e-25
9.000015e-02 -2.433499e-25
9.999943e-02 -2.750355e-25
1.099997e-01 -3.040331e-25
1.199999e-01 -3.293472e-25
1.300001e-01 -3.499322e-25
1.399994e-01 -3.647093e-25
1.499996e-01 -3.725854e-25
1.599998e-01 -3.724783e-25
1.700001e-01 -3.633410e-25
1.799994e-01 -3.441960e-25
1.899996e-01 -3.141669e-25
1.999998e-01 -2.725178e-25
2.100000e-01 -2.186923e-25
2.200003e-01 -1.523584e-25
2.299995e-01 -7.344948e-26
2.399998e-01 1.779002e-26
2.500000e-01 1.207640e-25
2.600002e-01 2.344835e-25
2.699995e-01 3.575324e-25
2.799997e-01 4.880394e-25
2.900000e-01 6.236553e-25
3.000002e-01 7.615461e-25
3.099995e-01 8.983932e-25
3.199997e-01 1.030411e-24
3.299999e-01 1.153382e-24
3.400002e-01 1.262705e-24
3.499994e-01 1.353470e-24
3.599997e-01 1.420547e-24
3.699999e-01 1.458702e-24
3.800001e-01 1.462727e-24
3.899994e-01 1.427597e-24
3.999996e-01 1.348640e-24
4.099998e-01 1.221726e-24
4.200001e-01 1.043468e-24
4.299994e-01 8.114364e-25
4.399996e-01 5.243644e-25
4.499998e-01 1.823630e-25
4.600000e-01 -2.128730e-25
4.700003e-01 -6.578895e-25
4.799995e-01 -1.147305e-24
4.899998e-01 -1.673690e-24
5.000000e-01 -2.227484e-24
5.100002e-01 -2.796957e-24
5.199995e-01 -3.368254e-24
5.299997e-01 -3.925465e-24
5.400000e-01 -4.450823e-24
5.500002e-01 -4.924935e-24
5.599995e-01 -5.327124e-24
5.699997e-01 -5.635850e-24
5.799999e-01 -5.829200e-24
5.900002e-01 -5.885509e-24
5.999994e-01 -5.783992e-24
6.099997e-01 -5.505472e-24
6.199999e-01 -5.033193e-24
6.300001e-01 -4.353611e-24
6.399994e-01 -3.457246e-24
6.499996e-01 -2.339524e-24
6.599998e-01 -1.001567e-24
6.700001e-01 5.490503e-25
6.799994e-01 2.297625e-24
6.899996e-01 4.221808e-24
6.999998e-01 6.291183e-24
7.100000e-01 8.467072e-24
7.200003e-01 1.070252e-23
7.299995e-01 1.294257e-23
7.399998e-01 1.512467e-23
7.500000e-01 1.717961e-23
7.600002e-01 1.903246e-23
7.699995e-01 2.060404e-23
7.799997e-01 2.181257e-23
7.900000e-01 2.257572e-23
8.000002e-01 2.281280e-23
8.099995e-01 2.244730e-23
8.199997e-01 2.140957e-23
8.299999e-01 1.963976e-23
8.400002e-01 1.709065e-23
8.499994e-01 1.373076e-23
8.599997e-01 9.547026e-24
8.699999e-01 4.547821e-24
8.800001e-01 -1.234812e-24
8.899994e-01 -7.742859e-24
8.999996e-01 -1.489079e-23
9.099998e-01 -2.256439e-23
9.200001e-01 -3.062035e-23
9.299994e-01 -3.888657e-23
9.399996e-01 -4.716336e-23
9.499998e-01 -5.522548e-23
9.600000e-01 -6.282532e-23
9.700003e-01 -6.969655e-23
9.799995e-01 -7.555972e-23
9.899998e-01 -8.012782e-23
1.000000e+00 -8.311350e-23
1.010000e+00 -8.423673e-23
1.020000e+00 -8.323347e-23
1.030000e+00 -7.986469e-23
1.040000e+00 -7.392597e-23
1.050000e+00 -6.525731e-23
1.059999e+00 -5.375246e-23
1.070000e+00 -3.936922e-23
1.080000e+00 -2.213692e-23
1.090000e+00 -2.165298e-24
1.099999e+00 2.034933e-23
1.110000e+00 4.511900e-23
1.120000e+00 7.176078e-23
1.130000e+00 9.979599e-23
1.139999e+00 1.286514e-22
1.150000e+00 1.576634e-22
1.160000e+00 1.860857e-22
1.170000e+00 2.130981e-22
1.179999e+00 2.378210e-22
1.190000e+00 2.593304e-22
1.200000e+00 2.766785e-22
1.210000e+00 2.889147e-22
1.220000e+00 2.951114e-22
1.230000e+00 2.943898e-22
1.240000e+00 2.859492e-22
1.250000e+00 2.690973e-22
1.260000e+00 2.432798e-22
1.270000e+00 2.081109e-22
1.280000e+00 1.634031e-22
1.290000e+00 1.091938e-22
1.300000e+00 4.576996e-23
1.309999e+00 -2.631013e-23
1.320000e+00 -1.062023e-22
1.330000e+00 -1.927648e-22
1.340000e+00 -2.845544e-22
1.349999e+00 -3.798300e-22
1.360000e+00 -4.765648e-22
1.370000e+00 -5.724643e-22
1.380000e+00 -6.649971e-22
1.389999e+00 -7.514313e-22
1.400000e+00 -8.288846e-22
1.410000e+00 -8.943772e-22
1.420000e+00 -9.449010e-22
1.429999e+00 -9.774875e-22
1.440000e+00 -9.892934e-22
1.450000e+00 -9.776800e-22
1.460000e+00 -9.403066e-22
1.469999e+00 -8.752212e-22
1.480000e+00 -7.809494e-22
1.490000e+00 -6.565840e-22
1.500000e+00 -5.018734e-22
1.510000e+00 -3.172923e-22
1.520000e+00 -1.041137e-22
1.530000e+00 1.355397e-22
1.540000e+00 3.986551e-22
1.550000e+00 6.813112e-22
1.559999e+00 9.786757e-22
1.570000e+00 1.285029e-21
1.580000e+00 1.593812e-21
1.590000e+00 1.897694e-21
1.599999e+00 2.188679e-21
1.610000e+00 2.458225e-21
1.620000e+00 2.697400e-21
1.630000e+00 2.897063e-21
1.639999e+00 3.048060e-21
1.650000e+00 3.141447e-21
1.660000e+00 3.168742e-21
1.670000e+00 3.122165e-21
1.679999e+00 2.994916e-21
1.690000e+00 2.781434e-21
1.700000e+00 2.477665e-21
1.710000e+00 2.081322e-21
1.719999e+00 1.592114e-21
1.730000e+00 1.011977e-21
1.740000e+00 3.452405e-22
1.750000e+00 -4.012130e-22
1.760000e+00 -1.217862e-21
1.770000e+00 -2.092495e-21
1.780000e+00 -3.010233e-21
1.790000e+00 -3.953609e-21
1.800000e+00 -4.902729e-21
1.809999e+00 -5.835483e-21
1.820000e+00 -6.727878e-21
1.830000e+00 -7.554397e-21
1.840000e+00 -8.288452e-21
1.849999e+00 -8.902947e-21
1.860000e+00 -9.370829e-21
1.870000e+00 -9.665772e-21
1.880000e+00 -9.762855e-21
1.889999e+00 -9.639323e-21
1.900000e+00 -9.275335e-21
1.910000e+00 -8.654736e-21
1.920000e+00 -7.765810e-21
1.929999e+00 -6.602013e-21
1.940000e+00 -5.162642e-21
1.950000e+00 -3.453451e-21
1.960000e+00 -1.487151e-21
1.969999e+00 7.161822e-22
1.980000e+00 3.128856e-21
1.990000e+00 5.715442e-21
2.000000e+00 8.432857e-21
2.010000e+00 1.123059e-20
2.020000e+00 1.405118e-20
2.030000e+00 1.683089e-20
2.040000e+00 1.950053e-20
2.050000e+00 2.198664e-20
2.059999e+00 2.421265e-20
2.070000e+00 2.610058e-20
2.080000e+00 2.757253e-20
2.090000e+00 2.855263e-20
2.099999e+00 2.896901e-20
2.110000e+00 2.875588e-20
2.120000e+00 2.785561e-20
2.130000e+00 2.622099e-20
2.139999e+00 2.381725e-20
2.150000e+00 2.062413e-20
2.160000e+00 1.663781e-20
2.170000e+00 1.187252e-20
2.179999e+00 6.362030e-21
2.190000e+00 1.607412e-22
2.200000e+00 -6.655618e-21
2.210000e+00 -1.398964e-20
2.219999e+00 -2.172248e-20
2.230000e+00 -2.971448e-20
2.240000e+00 -3.780646e-20
2.250000e+00 -4.582162e-20
2.260000e+00 -5.356777e-20
2.270000e+00 -6.084054e-20
2.280000e+00 -6.742681e-20
2.290000e+00 -7.310899e-20
2.300000e+00 -7.766936e-20
2.309999e+00 -8.089551e-20
2.320000e+00 -8.258538e-20
2.330000e+00 -8.255327e-20
2.340000e+00 -8.063538e-20
2.349999e+00 -7.669597e-20
2.360000e+00 -7.063290e-20
2.370000e+00 -6.238329e-20
2.380000e+00 -5.192879e-20
2.389999e+00 -3.929984e-20
2.400000e+00 -2.457980e-20
2.410000e+00 -7.907965e-21
2.420000e+00 1.051858e-20
2.429999e+00 3.044402e-20
2.440000e+00 5.155424e-20
2.450000e+00 7.347874e-20
2.460000e+00 9.579399e-20
2.469999e+00 1.180280e-19
2.480000e+00 1.396674e-19
2.490000e+00 1.601646e-19
2.500000e+00 1.789478e-19
2.510000e+00 1.954319e-19
2.520000e+00 2.090306e-19
2.530000e+00 2.191695e-19
2.540000e+00 2.253017e-19
2.550000e+00 2.269207e-19
2.559999e+00 2.235778e-19
2.570000e+00 2.148959e-19
2.580000e+00 2.005861e-19
2.590000e+00 1.804616e-19
2.599999e+00 1.544510e-19
2.610000e+00 1.226105e-19
2.620000e+00 8.513416e-20
2.630000e+00 4.236156e-20
2.639999e+00 -5.216758e-21
2.650000e+00 -5.695738e-20
2.660000e+00 -1.120648e-19
2.670000e+00 -1.695963e-19
2.679999e+00 -2.284710e-19
2.690000e+00 -2.874812e-19
2.700000e+00 -3.453104e-19
2.710000e+00 -4.005519e-19
2.719999e+00 -4.517347e-19
2.730000e+00 -4.973513e-19
2.740000e+00 -5.358867e-19
2.750000e+00 -5.658559e-19
2.760000e+00 -5.858371e-19
2.770000e+00 -5.945125e-19
2.780000e+00 -5.907033e-19
2.790000e+00 -5.734135e-19
2.800000e+00 -5.418641e-19
2.809999e+00 -4.955315e-19
2.820000e+00 -4.341814e-19
2.830000e+00 -3.578976e-19
2.840000e+00 -2.671076e-19
2.849999e+00 -1.626036e-19
2.860000e+00 -4.555289e-20
2.870000e+00 8.249492e-20
2.880000e+00 2.196120e-19
2.889999e+00 3.635034e-19
2.900000e+00 5.115291e-19
2.910000e+00 6.607340e-19
2.920000e+00 8.078898e-19
2.929999e+00 9.495442e-19
2.940000e+00 1.082081e-18
2.950000e+00 1.201788e-18
2.960000e+00 1.304935e-18
2.969999e+00 1.387852e-18
2.980000e+00 1.447023e-18
2.990000e+00 1.479176e-18
3.000000e+00 1.481371e-18
3.010000e+00 1.451105e-18
3.020000e+00 1.386393e-18
3.030000e+00 1.285864e-18
3.040000e+00 1.148833e-18