-8.000000e+00 0.000000e+00
-7.990000e+00 0.000000e+00
-7.980000e+00 0.000000e+00
-7.970000e+00 0.000000e+00
-7.960000e+00 0.000000e+00
-7.950000e+00 0.000000e+00
-7.940000e+00 0.000000e+00
-7.930000e+00 0.000000e+00
-7.920000e+00 0.000000e+00
-7.910000e+00 0.000000e+00
-7.900000e+00 0.000000e+00
-7.890000e+00 0.000000e+00
-7.880000e+00 0.000000e+00
-7.870000e+00 0.000000e+00
-7.860000e+00 0.000000e+00
-7.850000e+00 0.000000e+00
-7.840000e+00 0.000000e+00
-7.830000e+00 0.000000e+00
-7.820000e+00 0.000000e+00
-7.810000e+00 0.000000e+00
-7.800000e+00 0.000000e+00
-7.790000e+00 0.000000e+00
-7.780000e+00 0.000000e+00
-7.770000e+00 0.000000e+00
-7.760000e+00 0.000000e+00
-7.750000e+00 0.000000e+00
-7.740000e+00 0.000000e+00
-7.730000e+00 0.000000e+00
-7.720000e+00 0.000000e+00
-7.710000e+00 0.000000e+00
-7.700000e+00 0.000000e+00
-7.690000e+00 0.000000e+00
-7.680000e+00 0.000000e+00
-7.670000e+00 0.000000e+00
-7.660000e+00 0.000000e+00
-7.650000e+00 0.000000e+00
-7.640000e+00 0.000000e+00
-7.630000e+00 0.000000e+00
-7.620000e+00 0.000000e+00
-7.610000e+00 0.000000e+00
-7.600000e+00 0.000000e+00
-7.590000e+00 0.000000e+00
-7.580000e+00 0.000000e+00
-7.570000e+00 0.000000e+00
-7.560000e+00 0.000000e+00
-7.550000e+00 0.000000e+00
-7.540000e+00 0.000000e+00
-7.530000e+00 0.000000e+00
-7.520000e+00 0.000000e+00
-7.510000e+00 0.000000e+00
-7.500000e+00 0.000000e+00
-7.490000e+00 0.000000e+00
-7.480000e+00 0.000000e+00
-7.470000e+00 0.000000e+00
-7.460000e+00 0.000000e+00
-7.450000e+00 0.000000e+00
-7.440000e+00 0.000000e+00
-7.430000e+00 0.000000e+00
-7.420000e+00 0.000000e+00
-7.410000e+00 0.000000e+00
-7.400000e+00 0.000000e+00
-7.390000e+00 0.000000e+00
-7.380000e+00 0.000000e+00
-7.370000e+00 0.000000e+00
-7.360000e+00 0.000000e+00
-7.350000e+00 0.000000e+00
-7.340000e+00 0.000000e+00
-7.330000e+00 0.000000e+00
-7.320000e+00 0.000000e+00
-7.310000e+00 0.000000e+00
-7.300000e+00 0.000000e+00
-7.290000e+00 0.000000e+00
-7.280000e+00 0.000000e+00
-7.270000e+00 0.000000e+00
-7.260000e+00 0.000000e+00
-7.250000e+00 0.000000e+00
-7.240000e+00 0.000000e+00
-7.230000e+00 0.000000e+00
-7.220000e+00 0.000000e+00
-7.210000e+00 0.000000e+00
-7.200000e+00 0.000000e+00
-7.190000e+00 0.000000e+00
-7.180000e+00 0.000000e+00
-7.170000e+00 0.000000e+00
-7.160000e+00 0.000000e+00
-7.150000e+00 0.000000e+00
-7.140000e+00 0.000000e+00
-7.130000e+00 0.000000e+00
-7.120000e+00 0.000000e+00
-7.110000e+00 0.000000e+00
-7.100000e+00 0.000000e+00
-7.090000e+00 0.000000e+00
-7.080000e+00 0.000000e+00
-7.070000e+00 0.000000e+00
-7.060000e+00 0.000000e+00
-7.050000e+00 0.000000e+00
-7.040000e+00 0.000000e+00
-7.030000e+00 0.000000e+00
-7.020000e+00 0.000000e+00
-7.010000e+00 0.000000e+00
-7.000000e+00 0.000000e+00
-6.990000e+00 0.000000e+00
-6.980000e+00 0.000000e+00
-6.970000e+00 0.000000e+00
-6.960000e+00 0.000000e+00
-6.950000e+00 0.000000e+00
-6.940000e+00 0.000000e+00
-6.930000e+00 0.000000e+00
-6.920000e+00 0.000000e+00
-6.910000e+00 0.000000e+00
-6.900000e+00 0.000000e+00
-6.890000e+00 0.000000e+00
-6.880000e+00 0.000000e+00
-6.870000e+00 0.000000e+00
-6.860000e+00 0.000000e+00
-6.850000e+00 0.000000e+00
-6.840000e+00 0.000000e+00
-6.830000e+00 0.000000e+00
-6.820000e+00 0.000000e+00
-6.810000e+00 0.000000e+00
-6.800000e+00 0.000000e+00
-6.790000e+00 0.000000e+00
-6.780000e+00 0.000000e+00
-6.770000e+00 0.000000e+00
-6.760000e+00 0.000000e+00
-6.750000e+00 0.000000e+00
-6.740000e+00 0.000000e+00
-6.730000e+00 0.000000e+00
-6.720000e+00 0.000000e+00
-6.710000e+00 0.000000e+00
-6.700000e+00 0.000000e+00
-6.690000e+00 0.000000e+00
-6.680000e+00 0.000000e+00
-6.670000e+00 0.000000e+00
-6.660000e+00 0.000000e+00
-6.650000e+00 0.000000e+00
-6.640000e+00 0.000000e+00
-6.630000e+00 0.000000e+00
-6.620000e+00 0.000000e+00
-6.610000e+00 0.000000e+00
-6.600000e+00 0.000000e+00
-6.590000e+00 0.000000e+00
-6.580000e+00 0.000000e+00
-6.570000e+00 0.000000e+00
-6.560000e+00 0.000000e+00
-6.550000e+00 0.000000e+00
-6.540000e+00 0.000000e+00
-6.530000e+00 0.000000e+00
-6.520000e+00 0.000000e+00
-6.510000e+00 0.000000e+00
-6.500000e+00 0.000000e+00
-6.490000e+00 0.000000e+00
-6.480000e+00 0.000000e+00
-6.470000e+00 0.000000e+00
-6.460000e+00 0.000000e+00
-6.450000e+00 0.000000e+00
-6.440000e+00 0.000000e+00
-6.430000e+00 0.000000e+00
-6.420000e+00 0.000000e+00
-6.410000e+00 0.000000e+00
-6.400000e+00 0.000000e+00
-6.390000e+00 0.000000e+00
-6.380000e+00 0.000000e+00
-6.370000e+00 0.000000e+00
-6.360000e+00 0.000000e+00
-6.350000e+00 0.000000e+00
-6.340000e+00 0.000000e+00
-6.330000e+00 0.000000e+00
-6.320000e+00 0.000000e+00
-6.310000e+00 0.000000e+00
-6.300000e+00 0.000000e+00
-6.290000e+00 0.000000e+00
-6.280000e+00 0.000000e+00
-6.270000e+00 0.000000e+00
-6.260000e+00 0.000000e+00
-6.250000e+00 0.000000e+00
-6.240000e+00 0.000000e+00
-6.230000e+00 0.000000e+00
-6.220000e+00 0.000000e+00
-6.210000e+00 0.000000e+00
-6.200000e+00 0.000000e+00
-6.190000e+00 0.000000e+00
-6.180000e+00 0.000000e+00
-6.170000e+00 0.000000e+00
-6.160000e+00 0.000000e+00
-6.150000e+00 0.000000e+00
-6.140000e+00 0.000000e+00
-6.130000e+00 0.000000e+00
-6.120000e+00 0.000000e+00
-6.110000e+00 0.000000e+00
-6.100000e+00 0.000000e+00
-6.090000e+00 0.000000e+00
-6.080000e+00 0.000000e+00
-6.070000e+00 0.000000e+00
-6.060000e+00 0.000000e+00
-6.050000e+00 0.000000e+00
-6.040000e+00 0.000000e+00
-6.030000e+00 0.000000e+00
-6.020000e+00 0.000000e+00
-6.010000e+00 0.000000e+00
-6.000000e+00 0.000000e+00
-5.990000e+00 0.000000e+00
-5.980000e+00 0.000000e+00
-5.970000e+00 0.000000e+00
-5.960000e+00 0.000000e+00
-5.950000e+00 0.000000e+00
-5.940000e+00 0.000000e+00
-5.930000e+00 0.000000e+00
-5.920000e+00 0.000000e+00
-5.910000e+00 0.000000e+00
-5.900000e+00 0.000000e+00
-5.890000e+00 0.000000e+00
-5.880000e+00 0.000000e+00
-5.870000e+00 0.000000e+00
-5.860000e+00 0.000000e+00
-5.850000e+00 0.000000e+00
-5.840000e+00 0.000000e+00
-5.830000e+00 0.000000e+00
-5.820000e+00 0.000000e+00
-5.810000e+00 0.000000e+00
-5.800000e+00 0.000000e+00
-5.790000e+00 0.000000e+00
-5.780000e+00 0.000000e+00
-5.770000e+00 0.000000e+00
-5.760000e+00 0.000000e+00
-5.750000e+00 0.000000e+00
-5.740000e+00 0.000000e+00
-5.730000e+00 0.000000e+00
-5.720000e+00 0.000000e+00
-5.710000e+00 0.000000e+00
-5.700000e+00 0.000000e+00
-5.690000e+00 0.000000e+00
-5.680000e+00 0.000000e+00
-5.670000e+00 0.000000e+00
-5.660000e+00 0.000000e+00
-5.650000e+00 0.000000e+00
-5.640000e+00 0.000000e+00
-5.630000e+00 0.000000e+00
-5.620000e+00 0.000000e+00
-5.610000e+00 0.000000e+00
-5.600000e+00 0.000000e+00
-5.590000e+00 0.000000e+00
-5.580000e+00 0.000000e+00
-5.570000e+00 0.000000e+00
-5.560000e+00 0.000000e+00
-5.550000e+00 0.000000e+00
-5.540000e+00 0.000000e+00
-5.530000e+00 0.000000e+00
-5.520000e+00 0.000000e+00
-5.510000e+00 0.000000e+00
-5.500000e+00 0.000000e+00
-5.490000e+00 0.000000e+00
-5.480000e+00 0.000000e+00
-5.470000e+00 0.000000e+00
-5.460000e+00 0.000000e+00
-5.450000e+00 0.000000e+00
-5.440000e+00 0.000000e+00
-5.430000e+00 0.000000e+00
-5.420000e+00 0.000000e+00
-5.410000e+00 0.000000e+00
-5.400000e+00 0.000000e+00
-5.390000e+00 0.000000e+00
-5.380000e+00 0.000000e+00
-5.370000e+00 0.000000e+00
-5.360000e+00 0.000000e+00
-5.350000e+00 0.000000e+00
-5.340000e+00 0.000000e+00
-5.330000e+00 0.000000e+00
-5.320000e+00 0.000000e+00
-5.310000e+00 0.000000e+00
-5.300000e+00 0.000000e+00
-5.290000e+00 0.000000e+00
-5.280000e+00 0.000000e+00
-5.270000e+00 0.000000e+00
-5.260000e+00 0.000000e+00
-5.250000e+00 0.000000e+00
-5.240000e+00 0.000000e+00
-5.230000e+00 0.000000e+00
-5.220000e+00 0.000000e+00
-5.210000e+00 0.000000e+00
-5.200000e+00 0.000000e+00
-5.190000e+00 0.000000e+00
-5.180000e+00 0.000000e+00
-5.170000e+00 0.000000e+00
-5.160000e+00 0.000000e+00
-5.150000e+00 0.000000e+00
-5.140000e+00 0.000000e+00
-5.130000e+00 0.000000e+00
-5.120000e+00 0.000000e+00
-5.110000e+00 0.000000e+00
-5.100000e+00 0.000000e+00
-5.090000e+00 0.000000e+00
-5.080000e+00 0.000000e+00
-5.070000e+00 0.000000e+00
-5.060000e+00 0.000000e+00
-5.050000e+00 0.000000e+00
-5.040000e+00 0.000000e+00
-5.030000e+00 0.000000e+00
-5.020000e+00 0.000000e+00
-5.010000e+00 0.000000e+00
-5.000000e+00 0.000000e+00
-4.990000e+00 0.000000e+00
-4.980000e+00 0.000000e+00
-4.970000e+00 0.000000e+00
-4.960000e+00 0.000000e+00
-4.950000e+00 0.000000e+00
-4.940000e+00 0.000000e+00
-4.930000e+00 0.000000e+00
-4.920000e+00 0.000000e+00
-4.910000e+00 0.000000e+00
-4.900000e+00 0.000000e+00
-4.890000e+00 0.000000e+00
-4.880000e+00 0.000000e+00
-4.870000e+00 0.000000e+00
-4.860000e+00 0.000000e+00
-4.850000e+00 0.000000e+00
-4.840000e+00 0.000000e+00
-4.830000e+00 0.000000e+00
-4.820000e+00 0.000000e+00
-4.810000e+00 0.000000e+00
-4.800000e+00 0.000000e+00
-4.790000e+00 0.000000e+00
-4.780000e+00 0.000000e+00
-4.770000e+00 0.000000e+00
-4.760000e+00 0.000000e+00
-4.750000e+00 0.000000e+00
-4.740000e+00 0.000000e+00
-4.730000e+00 0.000000e+00
-4.720000e+00 0.000000e+00
-4.710000e+00 0.000000e+00
-4.700000e+00 0.000000e+00
-4.690000e+00 0.000000e+00
-4.680000e+00 0.000000e+00
-4.670000e+00 0.000000e+00
-4.660000e+00 0.000000e+00
-4.650000e+00 0.000000e+00
-4.640000e+00 0.000000e+00
-4.630000e+00 0.000000e+00
-4.620000e+00 0.000000e+00
-4.610000e+00 0.000000e+00
-4.600000e+00 0.000000e+00
-4.590000e+00 0.000000e+00
-4.580000e+00 0.000000e+00
-4.570000e+00 0.000000e+00
-4.560000e+00 0.000000e+00
-4.550000e+00 0.000000e+00
-4.540000e+00 0.000000e+00
-4.530000e+00 0.000000e+00
-4.520000e+00 0.000000e+00
-4.510000e+00 0.000000e+00
-4.500000e+00 0.000000e+00
-4.490000e+00 0.000000e+00
-4.480000e+00 0.000000e+00
-4.470000e+00 0.000000e+00
-4.460000e+00 0.000000e+00
-4.450000e+00 0.000000e+00
-4.440000e+00 0.000000e+00
-4.430000e+00 0.000000e+00
-4.420000e+00 0.000000e+00
-4.410000e+00 0.000000e+00
-4.400000e+00 0.000000e+00
-4.390000e+00 0.000000e+00
-4.380000e+00 0.000000e+00
-4.370000e+00 0.000000e+00
-4.360000e+00 0.000000e+00
-4.350000e+00 0.000000e+00
-4.340000e+00 0.000000e+00
-4.330000e+00 0.000000e+00
-4.320000e+00 0.000000e+00
-4.310000e+00 0.000000e+00
-4.300000e+00 0.000000e+00
-4.290000e+00 0.000000e+00
-4.280000e+00 0.000000e+00
-4.270000e+00 0.000000e+00
-4.260000e+00 0.000000e+00
-4.250000e+00 0.000000e+00
-4.240000e+00 0.000000e+00
-4.230000e+00 0.000000e+00
-4.220000e+00 0.000000e+00
-4.210000e+00 0.000000e+00
-4.200000e+00 0.000000e+00
-4.190000e+00 0.000000e+00
-4.180000e+00 0.000000e+00
-4.170000e+00 0.000000e+00
-4.160000e+00 0.000000e+00
-4.150000e+00 0.000000e+00
-4.140000e+00 0.000000e+00
-4.130000e+00 0.000000e+00
-4.120000e+00 0.000000e+00
-4.110000e+00 0.000000e+00
-4.100000e+00 0.000000e+00
-4.090000e+00 0.000000e+00
-4.080000e+00 0.000000e+00
-4.070000e+00 0.000000e+00
-4.060000e+00 0.000000e+00
-4.050000e+00 0.000000e+00
-4.040000e+00 0.000000e+00
-4.030000e+00 0.000000e+00
-4.020000e+00 0.000000e+00
-4.010000e+00 0.000000e+00
-4.000000e+00 0.000000e+00
-3.990000e+00 0.000000e+00
-3.980000e+00 0.000000e+00
-3.970000e+00 0.000000e+00
-3.960000e+00 0.000000e+00
-3.950000e+00 0.000000e+00
-3.940000e+00 0.000000e+00
-3.930000e+00 0.000000e+00
-3.920000e+00 0.000000e+00
-3.910000e+00 0.000000e+00
-3.900000e+00 0.000000e+00
-3.890000e+00 0.000000e+00
-3.880000e+00 0.000000e+00
-3.870000e+00 0.000000e+00
-3.860000e+00 0.000000e+00
-3.850000e+00 0.000000e+00
-3.840000e+00 0.000000e+00
-3.830000e+00 0.000000e+00
-3.820000e+00 0.000000e+00
-3.810000e+00 0.000000e+00
-3.800000e+00 0.000000e+00
-3.790000e+00 0.000000e+00
-3.780000e+00 0.000000e+00
-3.770000e+00 0.000000e+00
-3.760000e+00 0.000000e+00
-3.750000e+00 0.000000e+00
-3.740000e+00 0.000000e+00
-3.730000e+00 0.000000e+00
-3.720000e+00 0.000000e+00
-3.710000e+00 0.000000e+00
-3.700000e+00 0.000000e+00
-3.690000e+00 0.000000e+00
-3.680000e+00 0.000000e+00
-3.670000e+00 0.000000e+00
-3.660000e+00 0.000000e+00
-3.650000e+00 0.000000e+00
-3.640000e+00 0.000000e+00
-3.630000e+00 0.000000e+00
-3.620000e+00 0.000000e+00
-3.610000e+00 0.000000e+00
-3.600000e+00 0.000000e+00
-3.590000e+00 0.000000e+00
-3.580000e+00 0.000000e+00
-3.570000e+00 0.000000e+00
-3.560000e+00 0.000000e+00
-3.550000e+00 0.000000e+00
-3.540000e+00 0.000000e+00
-3.530000e+00 0.000000e+00
-3.520000e+00 0.000000e+00
-3.510000e+00 0.000000e+00
-3.500000e+00 0.000000e+00
-3.490000e+00 0.000000e+00
-3.480000e+00 0.000000e+00
-3.470000e+00 0.000000e+00
-3.460000e+00 0.000000e+00
-3.450000e+00 0.000000e+00
-3.440000e+00 0.000000e+00
-3.430000e+00 0.000000e+00
-3.420000e+00 0.000000e+00
-3.410000e+00 0.000000e+00
-3.400000e+00 0.000000e+00
-3.390000e+00 0.000000e+00
-3.380000e+00 0.000000e+00
-3.370000e+00 0.000000e+00
-3.360000e+00 0.000000e+00
-3.350000e+00 0.000000e+00
-3.340000e+00 0.000000e+00
-3.330000e+00 0.000000e+00
-3.320000e+00 0.000000e+00
-3.310000e+00 0.000000e+00
-3.300000e+00 0.000000e+00
-3.290000e+00 0.000000e+00
-3.280000e+00 0.000000e+00
-3.270000e+00 0.000000e+00
-3.260000e+00 0.000000e+00
-3.250000e+00 0.000000e+00
-3.240000e+00 0.000000e+00
-3.230000e+00 0.000000e+00
-3.220000e+00 0.000000e+00
-3.210000e+00 0.000000e+00
-3.200000e+00 0.000000e+00
-3.190000e+00 0.000000e+00
-3.180000e+00 0.000000e+00
-3.170000e+00 0.000000e+00
-3.160000e+00 0.000000e+00
-3.150000e+00 0.000000e+00
-3.140000e+00 0.000000e+00
-3.130000e+00 0.000000e+00
-3.120000e+00 0.000000e+00
-3.110000e+00 0.000000e+00
-3.100000e+00 0.000000e+00
-3.090000e+00 0.000000e+00
-3.080000e+00 0.000000e+00
-3.070000e+00 0.000000e+00
-3.060000e+00 0.000000e+00
-3.050000e+00 0.000000e+00
-3.040000e+00 0.000000e+00
-3.030000e+00 0.000000e+00
-3.020000e+00 0.000000e+00
-3.010000e+00 0.000000e+00
-3.000000e+00 0.000000e+00
-2.990000e+00 0.000000e+00
-2.980000e+00 0.000000e+00
-2.970000e+00 0.000000e+00
-2.960000e+00 0.000000e+00
-2.950000e+00 0.000000e+00
-2.940000e+00 0.000000e+00
-2.930000e+00 0.000000e+00
-2.920000e+00 0.000000e+00
-2.910000e+00 0.000000e+00
-2.900000e+00 0.000000e+00
-2.890000e+00 0.000000e+00
-2.880000e+00 0.000000e+00
-2.870000e+00 0.000000e+00
-2.860000e+00 0.000000e+00
-2.850000e+00 0.000000e+00
-2.840000e+00 0.000000e+00
-2.830000e+00 0.000000e+00
-2.820000e+00 0.000000e+00
-2.810000e+00 0.000000e+00
-2.800000e+00 0.000000e+00
-2.790000e+00 0.000000e+00
-2.780000e+00 0.000000e+00
-2.770000e+00 0.000000e+00
-2.760000e+00 0.000000e+00
-2.750000e+00 0.000000e+00
-2.740000e+00 0.000000e+00
-2.730000e+00 0.000000e+00
-2.720000e+00 0.000000e+00
-2.710000e+00 0.000000e+00
-2.700000e+00 0.000000e+00
-2.690000e+00 0.000000e+00
-2.680000e+00 0.000000e+00
-2.670000e+00 0.000000e+00
-2.660000e+00 0.000000e+00
-2.650000e+00 0.000000e+00
-2.640000e+00 0.000000e+00
-2.630000e+00 0.000000e+00
-2.620000e+00 0.000000e+00
-2.610000e+00 0.000000e+00
-2.600000e+00 0.000000e+00
-2.590000e+00 0.000000e+00
-2.580000e+00 0.000000e+00
-2.570000e+00 0.000000e+00
-2.560000e+00 0.000000e+00
-2.550000e+00 0.000000e+00
-2.540000e+00 0.000000e+00
-2.530000e+00 0.000000e+00
-2.520000e+00 0.000000e+00
-2.510000e+00 0.000000e+00
-2.500000e+00 0.000000e+00
-2.490000e+00 0.000000e+00
-2.480000e+00 0.000000e+00
-2.470000e+00 0.000000e+00
-2.460000e+00 0.000000e+00
-2.450000e+00 0.000000e+00
-2.440000e+00 0.000000e+00
-2.430000e+00 0.000000e+00
-2.420000e+00 0.000000e+00
-2.410000e+00 0.000000e+00
-2.400000e+00 0.000000e+00
-2.390000e+00 0.000000e+00
-2.380000e+00 0.000000e+00
-2.370000e+00 0.000000e+00
-2.360000e+00 0.000000e+00
-2.350000e+00 0.000000e+00
-2.340000e+00 0.000000e+00
-2.330000e+00 0.000000e+00
-2.320000e+00 0.000000e+00
-2.310000e+00 0.000000e+00
-2.300000e+00 0.000000e+00
-2.290000e+00 0.000000e+00
-2.280000e+00 0.000000e+00
-2.270000e+00 0.000000e+00
-2.260000e+00 0.000000e+00
-2.250000e+00 0.000000e+00
-2.240000e+00 0.000000e+00
-2.230000e+00 0.000000e+00
-2.220000e+00 0.000000e+00
-2.210000e+00 0.000000e+00
-2.200000e+00 0.000000e+00
-2.190000e+00 0.000000e+00
-2.180000e+00 0.000000e+00
-2.170000e+00 0.000000e+00
-2.160000e+00 0.000000e+00
-2.150000e+00 0.000000e+00
-2.140000e+00 0.000000e+00
-2.130000e+00 0.000000e+00
-2.120000e+00 0.000000e+00
-2.110000e+00 0.000000e+00
-2.100000e+00 0.000000e+00
-2.090000e+00 0.000000e+00
-2.080000e+00 0.000000e+00
-2.070000e+00 0.000000e+00
-2.060000e+00 0.000000e+00
-2.050000e+00 0.000000e+00
-2.040000e+00 0.000000e+00
-2.030000e+00 0.000000e+00
-2.020000e+00 0.000000e+00
-2.010000e+00 0.000000e+00
-2.000000e+00 0.000000e+00
-1.990000e+00 0.000000e+00
-1.980000e+00 0.000000e+00
-1.970000e+00 0.000000e+00
-1.960000e+00 0.000000e+00
-1.950000e+00 0.000000e+00
-1.940000e+00 0.000000e+00
-1.930000e+00 0.000000e+00
-1.920000e+00 0.000000e+00
-1.910000e+00 0.000000e+00
-1.900000e+00 0.000000e+00
-1.890000e+00 0.000000e+00
-1.880000e+00 0.000000e+00
-1.870000e+00 0.000000e+00
-1.860000e+00 0.000000e+00
-1.850000e+00 0.000000e+00
-1.840000e+00 0.000000e+00
-1.830000e+00 0.000000e+00
-1.820000e+00 0.000000e+00
-1.810000e+00 0.000000e+00
-1.800000e+00 0.000000e+00
-1.790000e+00 0.000000e+00
-1.780000e+00 0.000000e+00
-1.770000e+00 0.000000e+00
-1.760000e+00 0.000000e+00
-1.750000e+00 0.000000e+00
-1.740000e+00 0.000000e+00
-1.730000e+00 0.000000e+00
-1.720000e+00 0.000000e+00
-1.710000e+00 0.000000e+00
-1.700000e+00 0.000000e+00
-1.690000e+00 0.000000e+00
-1.680000e+00 0.000000e+00
-1.670000e+00 0.000000e+00
-1.660000e+00 0.000000e+00
-1.650000e+00 0.000000e+00
-1.640000e+00 0.000000e+00
-1.630000e+00 0.000000e+00
-1.620000e+00 0.000000e+00
-1.610000e+00 0.000000e+00
-1.600000e+00 0.000000e+00
-1.590000e+00 0.000000e+00
-1.580000e+00 0.000000e+00
-1.570000e+00 0.000000e+00
-1.560000e+00 0.000000e+00
-1.550000e+00 0.000000e+00
-1.540000e+00 0.000000e+00
-1.530000e+00 0.000000e+00
-1.520000e+00 0.000000e+00
-1.510000e+00 0.000000e+00
-1.500000e+00 0.000000e+00
-1.490000e+00 0.000000e+00
-1.480000e+00 0.000000e+00
-1.470000e+00 0.000000e+00
-1.460000e+00 0.000000e+00
-1.450000e+00 0.000000e+00
-1.440000e+00 0.000000e+00
-1.430000e+00 0.000000e+00
-1.420000e+00 0.000000e+00
-1.410000e+00 0.000000e+00
-1.400000e+00 0.000000e+00
-1.390000e+00 0.000000e+00
-1.380000e+00 0.000000e+00
-1.370000e+00 0.000000e+00
-1.360000e+00 0.000000e+00
-1.350000e+00 0.000000e+00
-1.340000e+00 0.000000e+00
-1.330000e+00 0.000000e+00
-1.320000e+00 0.000000e+00
-1.310000e+00 0.000000e+00
-1.300000e+00 0.000000e+00
-1.290000e+00 0.000000e+00
-1.280000e+00 0.000000e+00
-1.270000e+00 0.000000e+00
-1.260000e+00 0.000000e+00
-1.250000e+00 0.000000e+00
-1.240000e+00 0.000000e+00
-1.230000e+00 0.000000e+00
-1.220000e+00 0.000000e+00
-1.210000e+00 0.000000e+00
-1.200000e+00 0.000000e+00
-1.190000e+00 0.000000e+00
-1.180000e+00 0.000000e+00
-1.170000e+00 -2.802597e-45
-1.160000e+00 -2.802597e-45
-1.150000e+00 -2.802597e-45
-1.140000e+00 -2.802597e-45
-1.130000e+00 -4.203895e-45
-1.120000e+00 -4.203895e-45
-1.110000e+00 -2.802597e-45
-1.100000e+00 -4.203895e-45
-1.090000e+00 -4.203895e-45
-1.080000e+00 -5.605194e-45
-1.070000e+00 -4.203895e-45
-1.060000e+00 -2.802597e-45
-1.050000e+00 0.000000e+00
-1.040000e+00 4.203895e-45
-1.030000e+00 5.605194e-45
-1.020000e+00 4.203895e-45
-1.010000e+00 5.605194e-45
-1.000000e+00 1.121039e-44
-9.900002e-01 1.401298e-44
-9.800000e-01 1.681558e-44
-9.700003e-01 1.681558e-44
-9.600000e-01 2.242078e-44
-9.500003e-01 2.662467e-44
-9.400001e-01 2.942727e-44
-9.300003e-01 3.222986e-44
-9.200001e-01 2.942727e-44
-9.100003e-01 2.942727e-44
-9.000001e-01 2.242078e-44
-8.900003e-01 1.681558e-44
-8.800001e-01 1.121039e-44
-8.700004e-01 4.203895e-45
-8.600001e-01 -9.809089e-45
-8.500004e-01 -1.681558e-44
-8.400002e-01 -2.942727e-44
-8.299999e-01 -4.484155e-44
-8.200002e-01 -5.465064e-44
-8.099999e-01 -7.286752e-44
-8.000002e-01 -9.248570e-44
-7.900000e-01 -9.949219e-44
-7.800002e-01 -1.135052e-43
-7.700000e-01 -1.303208e-43
-7.600002e-01 -1.401298e-43
-7.500000e-01 -1.401298e-43
-7.400002e-01 -1.471363e-43
-7.300000e-01 -1.471363e-43
-7.200003e-01 -1.359260e-43
-7.100000e-01 -1.233143e-43
-7.000003e-01 -9.949219e-44
-6.900001e-01 -8.127531e-44
-6.800003e-01 -4.344025e-44
-6.700001e-01 -1.121039e-44
-6.600003e-01 3.222986e-44
-6.500001e-01 8.127531e-44
-6.400003e-01 1.303208e-43
-6.300001e-01 1.737610e-43
-6.200004e-01 2.270104e-43
-6.100001e-01 2.816610e-43
-6.000004e-01 3.166935e-43
-5.900002e-01 3.671402e-43
-5.800004e-01 4.035740e-43
-5.700002e-01 4.133830e-43
-5.599999e-01 4.259947e-43
-5.500002e-01 4.091792e-43
-5.400000e-01 3.951662e-43
-5.300002e-01 3.461207e-43
-5.200000e-01 2.900688e-43
-5.100002e-01 1.961818e-43
-5.000000e-01 7.847271e-44
-4.900002e-01 -4.063766e-44
-4.800000e-01 -1.905766e-43
-4.700003e-01 -3.517259e-43
-4.600000e-01 -5.240856e-43
-4.500003e-01 -7.160635e-43
-4.400001e-01 -8.982323e-43
-4.300003e-01 -1.076197e-42
-4.200001e-01 -1.251360e-42
-4.100003e-01 -1.413910e-42
-4.000001e-01 -1.533021e-42
-3.900003e-01 -1.628309e-42
-3.800001e-01 -1.661940e-42
-3.700004e-01 -1.657736e-42
-3.600001e-01 -1.573658e-42
-3.500004e-01 -1.426522e-42
-3.400002e-01 -1.205117e-42
-3.300004e-01 -8.954297e-43
-3.200002e-01 -5.184804e-43
-3.099999e-01 -5.885454e-44
-3.000002e-01 4.932571e-43
-2.900000e-01 1.066388e-42
-2.800002e-01 1.724998e-42
-2.700000e-01 2.432654e-42
-2.600002e-01 3.140310e-42
-2.500000e-01 3.843762e-42
-2.400002e-01 4.510780e-42
-2.300000e-01 5.127351e-42
-2.200003e-01 5.647233e-42
-2.100000e-01 6.048004e-42
-2.000003e-01 6.282021e-42
-1.900001e-01 6.314251e-42
-1.800003e-01 6.143292e-42
-1.700001e-01 5.731311e-42
-1.600003e-01 5.040471e-42
-1.500001e-01 4.059562e-42
-1.400003e-01 2.796992e-42
-1.300001e-01 1.230340e-42
-1.200004e-01 -6.137687e-43
-1.100001e-01 -2.696098e-42
-1.000004e-01 -4.990024e-42
-9.000015e-02 -7.447901e-42
-8.000040e-02 -1.001788e-41
-7.000017e-02 -1.260328e-41
-5.999994e-02 -1.510460e-41
-5.000019e-02 -1.744196e-41
-3.999996e-02 -1.947525e-41
-3.000021e-02 -2.113298e-41
-1.999998e-02 -2.226523e-41
-1.000023e-02 -2.275849e-41
0.000000e+00 -2.250485e-41
1.000023e-02 -2.140624e-41
1.999950e-02 -1.937716e-41
2.999973e-02 -1.636436e-41
3.999996e-02 -1.230480e-41
5.000019e-02 -7.216687e-42
5.999947e-02 -1.135052e-42
6.999969e-02 5.905072e-42
7.999992e-02 1.373833e-41
9.000015e-02 2.222740e-41
9.999943e-02 3.116348e-41
1.099997e-01 4.030415e-41
1.199999e-01 4.932430e-41
1.300001e-01 5.790305e-41
1.399994e-01 6.566485e-41
1.499996e-01 7.222713e-41
1.599998e-01 7.718212e-41
1.700001e-01 8.011924e-41
1.799994e-01 8.064052e-41
1.899996e-01 7.838864e-41
1.999998e-01 7.305529e-41
2.100000e-01 6.438966e-41
2.200003e-01 5.222499e-41
2.299995e-01 3.648841e-41
2.399998e-01 1.724158e-41
2.500000e-01 -5.351559e-42
2.600002e-01 -3.093366e-41
2.699995e-01 -5.906193e-41
2.799997e-01 -8.906933e-41
2.900000e-01 -1.201978e-40
3.000002e-01 -1.514818e-40
3.099995e-01 -1.818535e-40
3.199997e-01 -2.101359e-40
3.299999e-01 -2.350258e-40
3.400002e-01 -2.551989e-40
3.499994e-01 -2.692889e-40
3.599997e-01 -2.759605e-40
3.699999e-01 -2.739370e-40
3.800001e-01 -2.621185e-40
3.899994e-01 -2.395674e-40
3.999996e-01 -2.055859e-40
4.099998e-01 -1.597859e-40
4.200001e-01 -1.021491e-40
4.299994e-01 -3.305943e-41
4.399996e-01 4.663521e-41
4.499998e-01 1.356387e-40
4.600000e-01 2.320817e-40
4.700003e-01 3.336730e-40
4.799995e-01 4.375751e-40
4.899998e-01 5.405088e-40
5.000000e-01 6.387553e-40
5.100002e-01 7.283263e-40
5.199995e-01 8.049241e-40
5.299997e-01 8.641766e-40
5.400000e-01 9.017117e-40
5.500002e-01 9.133355e-40
5.599995e-01 8.951873e-40
5.699997e-01 8.438886e-40
5.799999e-01 7.568385e-40
5.900002e-01 6.322462e-40
5.999994e-01 4.694126e-40
6.099997e-01 2.688755e-40
6.199999e-01 3.251993e-41
6.300001e-01 -2.362869e-40
6.399994e-01 -5.325775e-40
6.499996e-01 -8.498623e-40
6.599998e-01 -1.180015e-39
6.700001e-01 -1.513437e-39
6.799994e-01 -1.839173e-39
6.899996e-01 -2.145088e-39
6.999998e-01 -2.418180e-39
7.100000e-01 -2.644829e-39
7.200003e-01 -2.811330e-39
7.299995e-01 -2.904181e-39
7.399998e-01 -2.910690e-39
7.500000e-01 -2.819509e-39
7.600002e-01 -2.621112e-39
7.699995e-01 -2.308435e-39
7.799997e-01 -1.877440e-39
7.900000e-01 -1.327538e-39
8.000002e-01 -6.621345e-40
8.099995e-01 1.109758e-40
8.199997e-01 9.793591e-40
8.299999e-01 1.925807e-39
8.400002e-01 2.928242e-39
8.499994e-01 3.959887e-39
8.599997e-01 4.989627e-39
8.699999e-01 5.982505e-39
8.800001e-01 6.900382e-39
8.899994e-01 7.702875e-39
8.999996e-01 8.348492e-39
9.099998e-01 8.795792e-39
9.200001e-01 9.004908e-39
9.299994e-01 8.939026e-39
9.399996e-01 8.566053e-39
9.499998e-01 7.860218e-39
9.600000e-01 6.803811e-39
9.700003e-01 5.388734e-39
9.799995e-01 3.617928e-39
9.899998e-01 1.506711e-39
1.000000e+00 -9.163553e-40
1.010000e+00 -3.608641e-39
1.020000e+00 -6.513325e-39
1.030000e+00 -9.559494e-39
1.040000e+00 -1.266280e-38
1.050000e+00 -1.572676e-38
1.059999e+00 -1.864441e-38
1.070000e+00 -2.130075e-38
1.080000e+00 -2.357554e-38
1.090000e+00 -2.534674e-38
1.099999e+00 -2.649441e-38
1.110000e+00 -2.690498e-38
1.120000e+00 -2.647574e-38
1.130000e+00 -2.511972e-38
1.139999e+00 -2.277033e-38
1.150000e+00 -1.938613e-38
1.160000e+00 -1.495516e-38
1.170000e+00 -9.498843e-39
1.179999e+00 -3.075222e-39
1.190000e+00 4.218588e-39
1.200000e+00 1.224514e-38
1.210000e+00 2.082629e-38
1.220000e+00 2.974451e-38
1.230000e+00 3.874548e-38
1.240000e+00 4.754210e-38
1.250000e+00 5.582032e-38
1.260000e+00 6.324638e-38
1.270000e+00 6.947571e-38
1.280000e+00 7.416274e-38
1.290000e+00 7.697271e-38
1.300000e+00 7.759369e-38
1.309999e+00 7.574976e-38
1.320000e+00 7.121413e-38
1.330000e+00 6.382245e-38
1.340000e+00 5.348533e-38
1.349999e+00 4.020007e-38
1.360000e+00 2.406047e-38
1.370000e+00 5.265048e-39
1.380000e+00 -1.587775e-38
1.389999e+00 -3.894689e-38
1.400000e+00 -6.341025e-38
1.410000e+00 -8.862890e-38
1.420000e+00 -1.138664e-37
1.429999e+00 -1.383019e-37
1.440000e+00 -1.610474e-37
1.450000e+00 -1.811693e-37
1.460000e+00 -1.977144e-37
1.469999e+00 -2.097379e-37
1.480000e+00 -2.163366e-37
1.490000e+00 -2.166816e-37
1.500000e+00 -2.100556e-37
1.510000e+00 -1.958869e-37
1.520000e+00 -1.737860e-37
1.530000e+00 -1.435769e-37
1.540000e+00 -1.053284e-37
1.550000e+00 -5.937736e-38
1.559999e+00 -6.348747e-39
1.570000e+00 5.283401e-38
1.580000e+00 1.169453e-37
1.590000e+00 1.844643e-37
1.599999e+00 2.535919e-37
1.610000e+00 3.222782e-37
1.620000e+00 3.882621e-37
1.630000e+00 4.491210e-37
1.639999e+00 5.023322e-37
1.650000e+00 5.453420e-37
1.660000e+00 5.756475e-37
1.670000e+00 5.908805e-37
1.679999e+00 5.888994e-37
1.690000e+00 5.678835e-37
1.700000e+00 5.264245e-37
1.710000e+00 4.636178e-37
1.719999e+00 3.791445e-37
1.730000e+00 2.733453e-37
1.740000e+00 1.472792e-37
1.750000e+00 2.767570e-39
1.760000e+00 -1.575842e-37
1.770000e+00 -3.303871e-37
1.780000e+00 -5.114911e-37
1.790000e+00 -6.960399e-37
1.800000e+00 -8.785504e-37
1.809999e+00 -1.053019e-36
1.820000e+00 -1.213062e-36
1.830000e+00 -1.352074e-36
1.840000e+00 -1.463418e-36
1.849999e+00 -1.540632e-36
1.860000e+00 -1.577649e-36
1.870000e+00 -1.569032e-36
1.880000e+00 -1.510213e-36
1.889999e+00 -1.397723e-36
1.900000e+00 -1.229420e-36
1.910000e+00 -1.004686e-36
1.920000e+00 -7.246112e-37
1.929999e+00 -3.921292e-37
1.940000e+00 -1.211634e-38
1.950000e+00 4.085636e-37
1.960000e+00 8.610695e-37
1.969999e+00 1.334664e-36
1.980000e+00 1.816841e-36
1.990000e+00 2.293559e-36
2.000000e+00 2.749500e-36
2.010000e+00 3.168429e-36
2.020000e+00 3.533600e-36
2.030000e+00 3.828221e-36
2.040000e+00 4.035974e-36
2.050000e+00 4.141554e-36
2.059999e+00 4.131248e-36
2.070000e+00 3.993508e-36
2.080000e+00 3.719517e-36
2.090000e+00 3.303735e-36
2.099999e+00 2.744374e-36
2.110000e+00 2.043829e-36
2.120000e+00 1.209008e-36
2.130000e+00 2.515658e-37
2.139999e+00 -8.120059e-37
2.150000e+00 -1.960389e-36
2.160000e+00 -3.167632e-36
2.170000e+00 -4.403480e-36
2.179999e+00 -5.633872e-36
2.190000e+00 -6.821597e-36
2.200000e+00 -7.927110e-36
2.210000e+00 -8.909472e-36
2.219999e+00 -9.727434e-36
2.230000e+00 -1.034065e-35
2.240000e+00 -1.071090e-35
2.250000e+00 -1.080346e-35
2.260000e+00 -1.058840e-35
2.270000e+00 -1.004194e-35
2.280000e+00 -9.147630e-36
2.290000e+00 -7.897565e-36
2.300000e+00 -6.293355e-36
2.309999e+00 -4.346923e-36
2.320000e+00 -2.081111e-36
2.330000e+00 4.700139e-37
2.340000e+00 3.261137e-36
2.349999e+00 6.235964e-36
2.360000e+00 9.327892e-36
2.370000e+00 1.246090e-35
2.380000e+00 1.555095e-35
2.389999e+00 1.850756e-35
2.400000e+00 2.123578e-35
2.410000e+00 2.363843e-35
2.420000e+00 2.561858e-35
2.429999e+00 2.708217e-35
2.440000e+00 2.794082e-35
2.450000e+00 2.811472e-35
2.460000e+00 2.753542e-35
2.469999e+00 2.614860e-35
2.480000e+00 2.391664e-35
2.490000e+00 2.082101e-35
2.500000e+00 1.686427e-35
2.510000e+00 1.207160e-35
2.520000e+00 6.492155e-36
2.530000e+00 1.994903e-37
2.540000e+00 -6.708244e-36
2.550000e+00 -1.410888e-35
2.559999e+00 -2.185742e-35
2.570000e+00 -2.978786e-35
2.580000e+00 -3.771554e-35
2.590000e+00 -4.544027e-35
2.599999e+00 -5.274987e-35
2.610000e+00 -5.942437e-35
2.620000e+00 -6.524041e-35
2.630000e+00 -6.997627e-35
2.639999e+00 -7.341703e-35
2.650000e+00 -7.535998e-35
2.660000e+00 -7.561984e-35
2.670000e+00 -7.403443e-35
2.679999e+00 -7.046980e-35
2.690000e+00 -6.482520e-35
2.700000e+00 -5.703761e-35
2.710000e+00 -4.708645e-35
2.719999e+00 -3.499651e-35
2.730000e+00 -2.084167e-35
2.740000e+00 -4.746830e-36
2.750000e+00 1.311014e-35
2.760000e+00 3.249768e-35
2.770000e+00 5.313062e-35
2.780000e+00 7.467079e-35
2.790000e+00 9.672904e-35
2.800000e+00 1.188677e-34
2.809999e+00 1.406044e-34
2.820000e+00 1.614167e-34
2.830000e+00 1.807476e-34
2.840000e+00 1.980126e-34
2.849999e+00 2.126073e-34
2.860000e+00 2.239158e-34
2.870000e+00 2.313222e-34
2.880000e+00 2.342206e-34
2.889999e+00 2.320289e-34
2.900000e+00 2.242009e-34
2.910000e+00 2.102436e-34
2.920000e+00 1.897319e-34
2.929999e+00 1.623263e-34
2.940000e+00 1.277924e-34
2.950000e+00 8.601823e-35
2.960000e+00 3.703597e-35
2.969999e+00 -1.895982e-35
2.980000e+00 -8.159185e-35
2.990000e+00 -1.502811e-34
3.000000e+00 -2.242303e-34
3.010000e+00 -3.024084e-34
3.020000e+00 -3.835392e-34
3.030000e+00 -4.660937e-34
3.040000e+00 -5.482861e-34
3.050000e+00 -6.280793e-34
3.059999e+00 -7.031947e-34
3.070000e+00 -7.711307e-34
3.080000e+00 -8.291908e-34
3.090000e+00 -8.745253e-34
3.099999e+00 -9.041757e-34
3.110000e+00 -9.151408e-34
3.120000e+00 -9.044451e-34
3.130000e+00 -8.692260e-34