-8.000000e+00 0.000000e+00
-7.990000e+00 0.000000e+00
-7.980000e+00 0.000000e+00
-7.970000e+00 0.000000e+00
-7.960000e+00 0.000000e+00
-7.950000e+00 0.000000e+00
-7.940000e+00 0.000000e+00
-7.930000e+00 0.000000e+00
-7.920000e+00 0.000000e+00
-7.910000e+00 0.000000e+00
-7.900000e+00 -1.541428e-44
-7.890000e+00 -1.513402e-43
-7.880000e+00 -1.105624e-42
-7.870000e+00 -6.420750e-42
-7.860000e+00 -3.136526e-41
-7.850000e+00 -1.333868e-40
-7.840000e+00 -5.073864e-40
-7.830000e+00 -1.758683e-39
-7.820000e+00 -5.632753e-39
-7.810000e+00 -1.684954e-38
-7.800000e+00 -4.747506e-38
-7.790000e+00 -1.268571e-37
-7.780000e+00 -3.232679e-37
-7.770000e+00 -7.892728e-37
-7.760000e+00 -1.853562e-36
-7.750000e+00 -4.200967e-36
-7.740000e+00 -9.215057e-36
-7.730000e+00 -1.961249e-35
-7.720000e+00 -4.058795e-35
-7.710000e+00 -8.183173e-35
-7.700000e+00 -1.610066e-34
-7.690000e+00 -3.096131e-34
-7.680000e+00 -5.826897e-34
-7.670000e+00 -1.074552e-33
-7.660000e+00 -1.943880e-33
-7.650000e+00 -3.453004e-33
-7.640000e+00 -6.028476e-33
-7.630000e+00 -1.035292e-32
-7.620000e+00 -1.750230e-32
-7.610000e+00 -2.914804e-32
-7.600000e+00 -4.785051e-32
-7.590000e+00 -7.747949e-32
-7.580000e+00 -1.238083e-31
-7.570000e+00 -1.953432e-31
-7.560000e+00 -3.044657e-31
-7.550000e+00 -4.689882e-31
-7.540000e+00 -7.142451e-31
-7.530000e+00 -1.075873e-30
-7.520000e+00 -1.603455e-30
-7.510000e+00 -2.365267e-30
-7.500000e+00 -3.454338e-30
-7.490000e+00 -4.996158e-30
-7.480000e+00 -7.158328e-30
-7.470000e+00 -1.016248e-29
-7.460000e+00 -1.429890e-29
-7.450000e+00 -1.994406e-29
-7.440000e+00 -2.758175e-29
-7.430000e+00 -3.782750e-29
-7.420000e+00 -5.145722e-29
-7.410000e+00 -6.943958e-29
-7.400000e+00 -9.297225e-29
-7.390000e+00 -1.235218e-28
-7.380000e+00 -1.628654e-28
-7.370000e+00 -2.131364e-28
-7.360000e+00 -2.768664e-28
-7.350000e+00 -3.570294e-28
-7.340000e+00 -4.570760e-28
-7.330000e+00 -5.809637e-28
-7.320000e+00 -7.331701e-28
-7.310000e+00 -9.186900e-28
-7.300000e+00 -1.143005e-27
-7.290000e+00 -1.412026e-27
-7.280000e+00 -1.731985e-27
-7.270000e+00 -2.109297e-27
-7.260000e+00 -2.550346e-27
-7.250000e+00 -3.061213e-27
-7.240000e+00 -3.647341e-27
-7.230000e+00 -4.313089e-27
-7.220000e+00 -5.061240e-27
-7.210000e+00 -5.892378e-27
-7.200000e+00 -6.804210e-27
-7.190000e+00 -7.790797e-27
-7.180000e+00 -8.841677e-27
-7.170000e+00 -9.940978e-27
-7.160000e+00 -1.106648e-26
-7.150000e+00 -1.218866e-26
-7.140000e+00 -1.326983e-26
-7.130000e+00 -1.426330e-26
-7.120000e+00 -1.511271e-26
-7.110000e+00 -1.575172e-26
-7.100000e+00 -1.610375e-26
-7.090000e+00 -1.608240e-26
-7.080000e+00 -1.559214e-26
-7.070000e+00 -1.452970e-26
-7.060000e+00 -1.278607e-26
-7.050000e+00 -1.024934e-26
-7.040000e+00 -6.808249e-27
-7.030000e+00 -2.356760e-27
-7.020000e+00 3.200556e-27
-7.010000e+00 9.942221e-27
-7.000000e+00 1.792266e-26
-6.990000e+00 2.716426e-26
-6.980000e+00 3.764895e-26
-6.970000e+00 4.930921e-26
-6.960000e+00 6.201927e-26
-6.950000e+00 7.558645e-26
-6.940000e+00 8.974299e-26
-6.930000e+00 1.041399e-25
-6.920000e+00 1.183416e-25
-6.910000e+00 1.318238e-25
-6.900000e+00 1.439742e-25
-6.890000e+00 1.540965e-25
-6.880000e+00 1.614194e-25
-6.870000e+00 1.651100e-25
-6.860000e+00 1.642933e-25
-6.850000e+00 1.580763e-25
-6.840000e+00 1.455794e-25
-6.830000e+00 1.259720e-25
-6.820000e+00 9.851569e-26
-6.810000e+00 6.261031e-26
-6.800000e+00 1.784474e-26
-6.790000e+00 -3.594967e-26
-6.780000e+00 -9.864527e-26
-6.770000e+00 -1.697663e-25
-6.760000e+00 -2.484398e-25
-6.750000e+00 -3.333542e-25
-6.740000e+00 -4.227294e-25
-6.730000e+00 -5.142955e-25
-6.720000e+00 -6.052949e-25
-6.710000e+00 -6.924982e-25
-6.700000e+00 -7.722464e-25
-6.690000e+00 -8.405156e-25
-6.680000e+00 -8.930129e-25
-6.670000e+00 -9.252966e-25
-6.660000e+00 -9.329249e-25
-6.650000e+00 -9.116328e-25
-6.640000e+00 -8.575302e-25
-6.630000e+00 -7.673215e-25
-6.620000e+00 -6.385350e-25
-6.610000e+00 -4.697574e-25
-6.600000e+00 -2.608653e-25
-6.590000e+00 -1.323833e-26
-6.580000e+00 2.700568e-25
-6.570000e+00 5.841229e-25
-6.560000e+00 9.221464e-25
-6.550000e+00 1.275379e-24
-6.540000e+00 1.633208e-24
-6.530000e+00 1.983310e-24
-6.520000e+00 2.311918e-24
-6.510000e+00 2.604184e-24
-6.500000e+00 2.844668e-24
-6.490000e+00 3.017916e-24
-6.480000e+00 3.109126e-24
-6.470000e+00 3.104931e-24
-6.460000e+00 2.994186e-24
-6.450000e+00 2.768821e-24
-6.440000e+00 2.424665e-24
-6.430000e+00 1.962222e-24
-6.420000e+00 1.387341e-24
-6.410000e+00 7.117412e-25
-6.400000e+00 -4.666532e-26
-6.390000e+00 -8.637158e-25
-6.380000e+00 -1.709238e-24
-6.370000e+00 -2.547638e-24
-6.360000e+00 -3.338862e-24
-6.350000e+00 -4.039765e-24
-6.340000e+00 -4.605872e-24
-6.330000e+00 -4.993506e-24
-6.320000e+00 -5.162292e-24
-6.310000e+00 -5.077878e-24
-6.300000e+00 -4.714895e-24
-6.290000e+00 -4.059927e-24
-6.280000e+00 -3.114432e-24
-6.270000e+00 -1.897388e-24
-6.260000e+00 -4.475192e-25
-6.250000e+00 1.175145e-24
-6.240000e+00 2.888514e-24
-6.230000e+00 4.588777e-24
-6.220000e+00 6.151930e-24
-6.210000e+00 7.436717e-24
-6.200000e+00 8.289096e-24
-6.190000e+00 8.548250e-24
-6.180000e+00 8.054210e-24
-6.170000e+00 6.656946e-24
-6.160000e+00 4.226818e-24
-6.150000e+00 6.660370e-25
-6.140000e+00 -4.079154e-24
-6.130000e+00 -1.000609e-23
-6.120000e+00 -1.704375e-23
-6.110000e+00 -2.504185e-23
-6.100000e+00 -3.376166e-23
-6.090000e+00 -4.286960e-23
-6.080000e+00 -5.193420e-23
-6.070000e+00 -6.042753e-23
-6.060000e+00 -6.773142e-23
-6.050000e+00 -7.314973e-23
-6.040000e+00 -7.592678e-23
-6.030000e+00 -7.527259e-23
-6.020000e+00 -7.039462e-23
-6.010000e+00 -6.053631e-23
-6.000000e+00 -4.502151e-23
-5.990000e+00 -2.330400e-23
-5.980000e+00 4.979436e-24
-5.970000e+00 3.995379e-23
-5.960000e+00 8.145102e-23
-5.950000e+00 1.289578e-22
-5.940000e+00 1.815700e-22
-5.930000e+00 2.379542e-22
-5.920000e+00 2.963243e-22
-5.910000e+00 3.544307e-22
-5.900000e+00 4.095726e-22
-5.890000e+00 4.586275e-22
-5.880000e+00 4.981109e-22
-5.870000e+00 5.242600e-22
-5.860000e+00 5.331441e-22
-5.850000e+00 5.208095e-22
-5.840000e+00 4.834426e-22
-5.830000e+00 4.175675e-22
-5.820000e+00 3.202578e-22
-5.810000e+00 1.893659e-22
-5.800000e+00 2.376355e-23
-5.790000e+00 -1.764228e-22
-5.780000e+00 -4.095817e-22
-5.770000e+00 -6.724150e-22
-5.760000e+00 -9.597621e-22
-5.750000e+00 -1.264480e-21
-5.740000e+00 -1.577379e-21
-5.730000e+00 -1.887235e-21
-5.720000e+00 -2.180886e-21
-5.710000e+00 -2.443433e-21
-5.700000e+00 -2.658529e-21
-5.690000e+00 -2.808802e-21
-5.680000e+00 -2.876369e-21
-5.670000e+00 -2.843480e-21
-5.660000e+00 -2.693237e-21
-5.650000e+00 -2.410437e-21
-5.640000e+00 -1.982453e-21
-5.630000e+00 -1.400185e-21
-5.620000e+00 -6.590099e-22
-5.610000e+00 2.402734e-22
-5.600000e+00 1.290571e-21
-5.590000e+00 2.477722e-21
-5.580000e+00 3.779874e-21
-5.570000e+00 5.167062e-21
-5.560000e+00 6.601045e-21
-5.550000e+00 8.035420e-21
-5.540000e+00 9.416084e-21
-5.530000e+00 1.068206e-20
-5.520000e+00 1.176672e-20
-5.510000e+00 1.259942e-20
-5.500000e+00 1.310753e-20
-5.490000e+00 1.321888e-20
-5.480000e+00 1.286452e-20
-5.470000e+00 1.198185e-20
-5.460000e+00 1.051793e-20
-5.450000e+00 8.432917e-21
-5.440000e+00 5.703618e-21
-5.430000e+00 2.326870e-21
-5.420000e+00 -1.677302e-21
-5.410000e+00 -6.262895e-21
-5.400000e+00 -1.135571e-20
-5.390000e+00 -1.685184e-20
-5.380000e+00 -2.261705e-20
-5.370000e+00 -2.848709e-20
-5.360000e+00 -3.426937e-20
-5.350000e+00 -3.974559e-20
-5.340000e+00 -4.467595e-20
-5.330000e+00 -4.880469e-20
-5.320000e+00 -5.186682e-20
-5.310000e+00 -5.359640e-20
-5.300000e+00 -5.373574e-20
-5.290000e+00 -5.204575e-20
-5.280000e+00 -4.831718e-20
-5.270000e+00 -4.238194e-20
-5.260000e+00 -3.412494e-20
-5.250000e+00 -2.349539e-20
-5.240000e+00 -1.051755e-20
-5.230000e+00 4.699955e-21
-5.220000e+00 2.195632e-20
-5.210000e+00 4.095302e-20
-5.200000e+00 6.129098e-20
-5.190000e+00 8.247086e-20
-5.180000e+00 1.038970e-19
-5.170000e+00 1.248847e-19
-5.160000e+00 1.446725e-19
-5.150000e+00 1.624375e-19
-5.140000e+00 1.773158e-19
-5.130000e+00 1.884267e-19
-5.120000e+00 1.948996e-19
-5.110000e+00 1.959054e-19
-5.100000e+00 1.906893e-19
-5.090000e+00 1.786059e-19
-5.080000e+00 1.591544e-19
-5.070000e+00 1.320134e-19
-5.060000e+00 9.707386e-20
-5.050000e+00 5.446891e-20
-5.040000e+00 4.599299e-21
-5.030000e+00 -5.184749e-20
-5.020000e+00 -1.138849e-19
-5.010000e+00 -1.802245e-19
-5.000000e+00 -2.492811e-19
-4.990000e+00 -3.191908e-19
-4.980000e+00 -3.878381e-19
-4.970000e+00 -4.528951e-19
-4.960000e+00 -5.118753e-19
-4.950000e+00 -5.621909e-19
-4.940000e+00 -6.012303e-19
-4.930000e+00 -6.264370e-19
-4.920000e+00 -6.353976e-19
-4.910000e+00 -6.259388e-19
-4.900000e+00 -5.962206e-19
-4.890000e+00 -5.448346e-19
-4.880000e+00 -4.708963e-19
-4.870000e+00 -3.741288e-19
-4.860000e+00 -2.549403e-19
-4.850000e+00 -1.144843e-19
-4.840000e+00 4.529824e-20
-4.830000e+00 2.216553e-19
-4.820000e+00 4.110257e-19
-4.810000e+00 6.090661e-19
-4.800000e+00 8.107066e-19
-4.790000e+00 1.010235e-18
-4.780000e+00 1.201411e-18
-4.770000e+00 1.377605e-18
-4.760000e+00 1.531971e-18
-4.750000e+00 1.657631e-18
-4.740000e+00 1.747896e-18
-4.730000e+00 1.796486e-18
-4.720000e+00 1.797763e-18
-4.710000e+00 1.746975e-18
-4.700000e+00 1.640484e-18
-4.690000e+00 1.475984e-18
-4.680000e+00 1.252704e-18
-4.670000e+00 9.715673e-19
-4.660000e+00 6.353255e-19
-4.650000e+00 2.486430e-19
-4.640000e+00 -1.818727e-19
-4.630000e+00 -6.476997e-19
-4.620000e+00 -1.138490e-18
-4.610000e+00 -1.642218e-18
-4.600000e+00 -2.145413e-18
-4.590000e+00 -2.633437e-18
-4.580000e+00 -3.090831e-18
-4.570000e+00 -3.501711e-18
-4.560000e+00 -3.850242e-18
-4.550000e+00 -4.121085e-18
-4.540000e+00 -4.299942e-18
-4.530000e+00 -4.374057e-18
-4.520000e+00 -4.332745e-18
-4.510000e+00 -4.167865e-18
-4.500000e+00 -3.874295e-18
-4.490000e+00 -3.450307e-18
-4.480000e+00 -2.897899e-18
-4.470000e+00 -2.223021e-18
-4.460000e+00 -1.435688e-18
-4.450000e+00 -5.499931e-19
-4.440000e+00 4.160148e-19
-4.430000e+00 1.440602e-18
-4.420000e+00 2.498727e-18
-4.410000e+00 3.562574e-18
-4.400000e+00 4.602209e-18
-4.390000e+00 5.586346e-18
-4.380000e+00 6.483209e-18
-4.370000e+00 7.261470e-18
-4.360000e+00 7.891286e-18
-4.350000e+00 8.345266e-18
-4.340000e+00 8.599524e-18
-4.330000e+00 8.634661e-18
-4.320000e+00 8.436638e-18
-4.310000e+00 7.997588e-18
-4.300000e+00 7.316458e-18
-4.290000e+00 6.399487e-18
-4.280000e+00 5.260482e-18
-4.270000e+00 3.920826e-18
-4.260000e+00 2.409322e-18
-4.250000e+00 7.617010e-19
-4.240000e+00 -9.800827e-19
-4.230000e+00 -2.768801e-18
-4.220000e+00 -4.553214e-18
-4.210000e+00 -6.279432e-18
-4.200000e+00 -7.892545e-18
-4.190000e+00 -9.338393e-18
-4.180000e+00 -1.056536e-17
-4.170000e+00 -1.152629e-17
-4.160000e+00 -1.218031e-17
-4.150000e+00 -1.249460e-17
-4.140000e+00 -1.244605e-17
-4.130000e+00 -1.202255e-17
-4.120000e+00 -1.122417e-17
-4.110000e+00 -1.006391e-17
-4.100000e+00 -8.567997e-18
-4.090000e+00 -6.775912e-18
-4.080000e+00 -4.739755e-18
-4.070000e+00 -2.523289e-18
-4.060000e+00 -2.003807e-19
-4.050000e+00 2.146932e-18
-4.040000e+00 4.430867e-18
-4.030000e+00 6.560728e-18
-4.020000e+00 8.445987e-18
-4.010000e+00 9.999552e-18
-4.000000e+00 1.114141e-17
-3.990000e+00 1.180203e-17
-3.980000e+00 1.192575e-17
-3.970000e+00 1.147406e-17
-3.960000e+00 1.042831e-17
-3.950000e+00 8.792170e-18
-3.940000e+00 6.593334e-18
-3.930000e+00 3.884560e-18
-3.920000e+00 7.438932e-19
-3.910000e+00 -2.725959e-18
-3.900000e+00 -6.399213e-18
-3.890000e+00 -1.012968e-17
-3.880000e+00 -1.375405e-17
-3.870000e+00 -1.709659e-17
-3.860000e+00 -1.997424e-17
-3.850000e+00 -2.220263e-17
-3.840000e+00 -2.360290e-17
-3.830000e+00 -2.400861e-17
-3.820000e+00 -2.327294e-17
-3.810000e+00 -2.127619e-17
-3.800000e+00 -1.793284e-17
-3.790000e+00 -1.319789e-17
-3.780000e+00 -7.072889e-18
-3.770000e+00 3.893056e-19
-3.760000e+00 9.081084e-18
-3.750000e+00 1.883791e-17
-3.740000e+00 2.943809e-17
-3.730000e+00 4.060427e-17
-3.720000e+00 5.200682e-17
-3.710000e+00 6.326962e-17
-3.700000e+00 7.397740e-17
-3.690000e+00 8.368545e-17
-3.680000e+00 9.193117e-17
-3.670000e+00 9.824725e-17
-3.660000e+00 1.021756e-16
-3.650000e+00 1.032845e-16
-3.640000e+00 1.011831e-16
-3.630000e+00 9.553970e-17
-3.620000e+00 8.609743e-17
-3.610000e+00 7.268952e-17
-3.600000e+00 5.525495e-17
-3.590000e+00 3.384987e-17
-3.580000e+00 8.658445e-18
-3.570000e+00 -1.999998e-17
-3.560000e+00 -5.166692e-17
-3.550000e+00 -8.574445e-17
-3.540000e+00 -1.214994e-16
-3.530000e+00 -1.580708e-16
-3.520000e+00 -1.944840e-16
-3.510000e+00 -2.296665e-16
-3.500000e+00 -2.624704e-16
-3.490000e+00 -2.916981e-16
-3.480000e+00 -3.161319e-16
-3.470000e+00 -3.345671e-16
-3.460000e+00 -3.458463e-16
-3.450000e+00 -3.488989e-16
-3.440000e+00 -3.427782e-16
-3.430000e+00 -3.266984e-16
-3.420000e+00 -3.000752e-16
-3.410000e+00 -2.625575e-16
-3.400000e+00 -2.140599e-16
-3.390000e+00 -1.547913e-16
-3.380000e+00 -8.527408e-17
-3.370000e+00 -6.360014e-18
-3.360000e+00 8.076208e-17
-3.350000e+00 1.745702e-16
-3.340000e+00 2.732166e-16
-3.330000e+00 3.745519e-16
-3.320000e+00 4.761513e-16
-3.310000e+00 5.753590e-16
-3.300000e+00 6.693350e-16
-3.290000e+00 7.551158e-16
-3.280000e+00 8.296835e-16
-3.270000e+00 8.900365e-16
-3.260000e+00 9.332752e-16
-3.250000e+00 9.566867e-16
-3.240000e+00 9.578305e-16
-3.230000e+00 9.346270e-16
-3.220000e+00 8.854496e-16
-3.210000e+00 8.091982e-16
-3.200000e+00 7.053833e-16
-3.190000e+00 5.741848e-16
-3.180000e+00 4.165157e-16
-3.170000e+00 2.340533e-16
-3.160000e+00 2.926758e-17
-3.150000e+00 -1.945715e-16
-3.140000e+00 -4.334108e-16
-3.130000e+00 -6.824514e-16
-3.120000e+00 -9.362042e-16
-3.110000e+00 -1.188571e-15
-3.100000e+00 -1.432952e-15
-3.090000e+00 -1.662372e-15
-3.080000e+00 -1.869621e-15
-3.070000e+00 -2.047427e-15
-3.060000e+00 -2.188641e-15
-3.050000e+00 -2.286421e-15
-3.040000e+00 -2.334445e-15
-3.030000e+00 -2.327118e-15
-3.020000e+00 -2.259782e-15
-3.010000e+00 -2.128915e-15
-3.000000e+00 -1.932334e-15
-2.990000e+00 -1.669361e-15
-2.980000e+00 -1.340972e-15
-2.970000e+00 -9.499326e-16
-2.960000e+00 -5.008760e-16
-2.950000e+00 -3.511243e-19
-2.940000e+00 5.431687e-16
-2.930000e+00 1.119338e-15
-2.920000e+00 1.716041e-15
-2.910000e+00 2.319542e-15
-2.900000e+00 2.914696e-15
-2.890000e+00 3.485225e-15
-2.880000e+00 4.014028e-15
-2.870000e+00 4.483555e-15
-2.860000e+00 4.876237e-15
-2.850000e+00 5.174919e-15
-2.840000e+00 5.363388e-15
-2.830000e+00 5.426828e-15
-2.820000e+00 5.352393e-15
-2.810000e+00 5.129685e-15
-2.800000e+00 4.751288e-15
-2.790000e+00 4.213202e-15
-2.780000e+00 3.515290e-15
-2.770000e+00 2.661634e-15
-2.760000e+00 1.660814e-15
-2.750000e+00 5.260992e-16
-2.740000e+00 -7.244459e-16
-2.730000e+00 -2.068037e-15
-2.720000e+00 -3.477278e-15
-2.710000e+00 -4.920504e-15
-2.700000e+00 -6.362192e-15
-2.690000e+00 -7.763560e-15
-2.680000e+00 -9.083276e-15
-2.670000e+00 -1.027834e-14
-2.660000e+00 -1.130505e-14
-2.650000e+00 -1.212008e-14
-2.640000e+00 -1.268178e-14
-2.630000e+00 -1.295126e-14
-2.620000e+00 -1.289387e-14
-2.610000e+00 -1.248038e-14
-2.600000e+00 -1.168838e-14
-2.590000e+00 -1.050350e-14
-2.580000e+00 -8.920447e-15
-2.570000e+00 -6.944164e-15
-2.560000e+00 -4.590549e-15
-2.550000e+00 -1.887125e-15
-2.540000e+00 1.126615e-15
-2.530000e+00 4.399152e-15
-2.520000e+00 7.867113e-15
-2.510000e+00 1.145595e-14
-2.500000e+00 1.508077e-14
-2.490000e+00 1.864769e-14
-2.480000e+00 2.205547e-14
-2.470000e+00 2.519749e-14
-2.460000e+00 2.796415e-14
-2.450000e+00 3.024547e-14
-2.440000e+00 3.193399e-14
-2.430000e+00 3.292780e-14
-2.420000e+00 3.313386e-14
-2.410000e+00 3.247132e-14
-2.400000e+00 3.087466e-14
-2.390000e+00 2.829703e-14
-2.380000e+00 2.471307e-14
-2.370000e+00 2.012164e-14
-2.360000e+00 1.454823e-14
-2.350000e+00 8.046495e-15
-2.340000e+00 6.995905e-16
-2.330000e+00 -7.379202e-15
-2.320000e+00 -1.604700e-14
-2.310000e+00 -2.513204e-14
-2.300000e+00 -3.443577e-14
-2.290000e+00 -4.373549e-14
-2.280000e+00 -5.278808e-14
-2.270000e+00 -6.133446e-14
-2.260000e+00 -6.910493e-14
-2.250000e+00 -7.582533e-14
-2.240000e+00 -8.122364e-14
-2.230000e+00 -8.503753e-14
-2.220000e+00 -8.702169e-14
-2.210000e+00 -8.695604e-14
-2.200000e+00 -8.465339e-14
-2.190000e+00 -7.996770e-14
-2.180000e+00 -7.280084e-14
-2.170000e+00 -6.310967e-14
-2.160000e+00 -5.091223e-14
-2.150000e+00 -3.629208e-14
-2.140000e+00 -1.940208e-14
-2.130000e+00 -4.665933e-16
-2.120000e+00 2.021824e-14
-2.110000e+00 4.228591e-14
-2.100000e+00 6.530312e-14
-2.090000e+00 8.877466e-14
-2.080000e+00 1.121513e-13
-2.070000e+00 1.348388e-13
-2.060000e+00 1.562097e-13
-2.050000e+00 1.756162e-13
-2.040000e+00 1.924047e-13
-2.030000e+00 2.059324e-13
-2.020000e+00 2.155840e-13
-2.010000e+00 2.207898e-13
-2.000000e+00 2.210433e-13
-1.990000e+00 2.159199e-13
-1.980000e+00 2.050934e-13
-1.970000e+00 1.883529e-13
-1.960000e+00 1.656164e-13
-1.950000e+00 1.369440e-13
-1.940000e+00 1.025474e-13
-1.930000e+00 6.279647e-14
-1.920000e+00 1.822243e-14
-1.910000e+00 -3.048237e-14
-1.900000e+00 -8.246940e-14
-1.890000e+00 -1.367432e-13
-1.880000e+00 -1.921740e-13
-1.870000e+00 -2.475163e-13
-1.860000e+00 -3.014297e-13
-1.850000e+00 -3.525059e-13
-1.840000e+00 -3.992980e-13
-1.830000e+00 -4.403529e-13
-1.820000e+00 -4.742459e-13
-1.810000e+00 -4.996209e-13
-1.800000e+00 -5.152236e-13
-1.790000e+00 -5.199448e-13
-1.780000e+00 -5.128540e-13
-1.770000e+00 -4.932386e-13
-1.760000e+00 -4.606335e-13
-1.750000e+00 -4.148537e-13
-1.740000e+00 -3.560152e-13
-1.730000e+00 -2.845559e-13
-1.720000e+00 -2.012470e-13
-1.710000e+00 -1.071972e-13
-1.700000e+00 -3.848925e-15
-1.690000e+00 1.070322e-13
-1.680000e+00 2.233791e-13
-1.670000e+00 3.428532e-13
-1.660000e+00 4.628795e-13
-1.650000e+00 5.806969e-13
-1.640000e+00 6.934092e-13
-1.630000e+00 7.980469e-13
-1.620000e+00 8.916340e-13
-1.610000e+00 9.712579e-13
-1.600000e+00 1.034145e-12
-1.590000e+00 1.077735e-12
-1.580000e+00 1.099756e-12
-1.570000e+00 1.098299e-12
-1.560000e+00 1.071883e-12
-1.550000e+00 1.019521e-12
-1.540000e+00 9.407737e-13
-1.530000e+00 8.357920e-13
-1.520000e+00 7.053516e-13
-1.510000e+00 5.508730e-13
-1.500000e+00 3.744254e-13
-1.490000e+00 1.787189e-13
-1.480000e+00 -3.292385e-14
-1.470000e+00 -2.566080e-13
-1.460000e+00 -4.879281e-13
-1.450000e+00 -7.220382e-13
-1.440000e+00 -9.537472e-13
-1.430000e+00 -1.177617e-12
-1.420000e+00 -1.388079e-12
-1.410000e+00 -1.579561e-12
-1.400000e+00 -1.746618e-12
-1.390000e+00 -1.884068e-12
-1.380000e+00 -1.987127e-12
-1.370000e+00 -2.051552e-12
-1.360000e+00 -2.073768e-12
-1.350000e+00 -2.050987e-12
-1.340000e+00 -1.981322e-12
-1.330000e+00 -1.863877e-12
-1.320000e+00 -1.698823e-12
-1.310000e+00 -1.487453e-12
-1.300000e+00 -1.232209e-12
-1.290000e+00 -9.366835e-13
-1.280000e+00 -6.055992e-13
-1.270000e+00 -2.447498e-13
-1.260000e+00 1.390762e-13
-1.250000e+00 5.382115e-13
-1.240000e+00 9.442447e-13
-1.230000e+00 1.348183e-12
-1.220000e+00 1.740639e-12
-1.210000e+00 2.112035e-12
-1.200000e+00 2.452817e-12
-1.190000e+00 2.753696e-12
-1.180000e+00 3.005875e-12
-1.170000e+00 3.201284e-12
-1.160000e+00 3.332814e-12
-1.150000e+00 3.394540e-12
-1.140000e+00 3.381906e-12
-1.130000e+00 3.291919e-12
-1.120000e+00 3.123284e-12
-1.110000e+00 2.876526e-12
-1.100000e+00 2.554065e-12
-1.090000e+00 2.160239e-12
-1.080000e+00 1.701309e-12
-1.070000e+00 1.185384e-12
-1.060000e+00 6.223170e-13
-1.050000e+00 2.354917e-14
-1.040000e+00 -5.980880e-13
-1.030000e+00 -1.228627e-12
-1.020000e+00 -1.853249e-12
-1.010000e+00 -2.456606e-12
-1.000000e+00 -3.023171e-12
-9.900002e-01 -3.537612e-12
-9.800000e-01 -3.985179e-12
-9.700003e-01 -4.352097e-12
-9.600000e-01 -4.625948e-12
-9.500003e-01 -4.796044e-12
-9.400001e-01 -4.853788e-12
-9.300003e-01 -4.792977e-12
-9.200001e-01 -4.610066e-12
-9.100003e-01 -4.304411e-12
-9.000001e-01 -3.878411e-12
-8.900003e-01 -3.337595e-12
-8.800001e-01 -2.690661e-12
-8.700004e-01 -1.949400e-12
-8.600001e-01 -1.128565e-12
-8.500004e-01 -2.456603e-13
-8.400002e-01 6.793693e-13
-8.299999e-01 1.624492e-12
-8.200002e-01 2.566057e-12
-8.099999e-01 3.479267e-12
-8.000002e-01 4.338768e-12
-7.900000e-01 5.119222e-12
-7.800002e-01 5.795981e-12
-7.700000e-01 6.345694e-12
-7.600002e-01 6.746976e-12
-7.500000e-01 6.981072e-12
-7.400002e-01 7.032416e-12
-7.300000e-01 6.889223e-12
-7.200003e-01 6.544007e-12
-7.100000e-01 5.993961e-12
-7.000003e-01 5.241319e-12
-6.900001e-01 4.293565e-12
-6.800003e-01 3.163574e-12
-6.700001e-01 1.869572e-12
-6.600003e-01 4.350045e-13
-6.500001e-01 -1.111735e-12
-6.400003e-01 -2.737701e-12
-6.300001e-01 -4.405954e-12
-6.200004e-01 -6.076204e-12
-6.100001e-01 -7.705593e-12
-6.000004e-01 -9.249577e-12
-5.900002e-01 -1.066289e-11
-5.800004e-01 -1.190056e-11
-5.700002e-01 -1.291903e-11
-5.599999e-01 -1.367724e-11
-5.500002e-01 -1.413777e-11
-5.400000e-01 -1.426786e-11
-5.300002e-01 -1.404052e-11
-5.200000e-01 -1.343544e-11
-5.100002e-01 -1.243993e-11
-5.000000e-01 -1.104949e-11
-4.900002e-01 -9.268569e-12
-4.800000e-01 -7.110859e-12
-4.700003e-01 -4.599572e-12
-4.600000e-01 -1.767417e-12
-4.500003e-01 1.343539e-12
-4.400001e-01 4.682264e-12
-4.300003e-01 8.189512e-12
-4.200001e-01 1.179852e-11
-4.100003e-01 1.543612e-11
-4.000001e-01 1.902395e-11
-3.900003e-01 2.247993e-11
-3.800001e-01 2.571973e-11
-3.700004e-01 2.865850e-11
-3.600001e-01 3.121266e-11
-3.500004e-01 3.330172e-11
-3.400002e-01 3.485011e-11
-3.300004e-01 3.578903e-11
-3.200002e-01 3.605823e-11
-3.099999e-01 3.560762e-11
-3.000002e-01 3.439892e-11
-2.900000e-01 3.240683e-11
-2.800002e-01 2.962040e-11
-2.700000e-01 2.604374e-11
-2.600002e-01 2.169666e-11
-2.500000e-01 1.661511e-11
-2.400002e-01 1.085106e-11
-2.300000e-01 4.472281e-12
-2.200003e-01 -2.438365e-12
-2.100000e-01 -9.783907e-12
-2.000003e-01 -1.745442e-11
-1.900001e-01 -2.532870e-11
-1.800003e-01 -3.327619e-11
-1.700001e-01 -4.115900e-11
-1.600003e-01 -4.883411e-11
-1.500001e-01 -5.615607e-11
-1.400003e-01 -6.297941e-11
-1.300001e-01 -6.916138e-11
-1.200004e-01 -7.456461e-11
-1.100001e-01 -7.905979e-11
-1.000004e-01 -8.252812e-11
-9.000015e-02 -8.486373e-11
-8.000040e-02 -8.597592e-11
-7.000017e-02 -8.579118e-11
-5.999994e-02 -8.425456e-11
-5.000019e-02 -8.133139e-11
-3.999996e-02 -7.700780e-11
-3.000021e-02 -7.129176e-11
-1.999998e-02 -6.421285e-11
-1.000023e-02 -5.582238e-11
0.000000e+00 -4.619256e-11
1.000023e-02 -3.541542e-11
1.999950e-02 -2.360164e-11
2.999973e-02 -1.087871e-11
3.999996e-02 2.611207e-12
5.000019e-02 1.671337e-11
5.999947e-02 3.126307e-11
6.999969e-02 4.608821e-11
7.999992e-02 6.101208e-11
9.000015e-02 7.585613e-11
9.999943e-02 9.044240e-11
1.099997e-01 1.045966e-10
1.199999e-01 1.181500e-10
1.300001e-01 1.309421e-10
1.399994e-01 1.428222e-10
1.499996e-01 1.536511e-10
1.599998e-01 1.633025e-10
1.700001e-01 1.716636e-10
1.799994e-01 1.786357e-10
1.899996e-01 1.841343e-10
1.999998e-01 1.880885e-10
2.100000e-01 1.904407e-10
2.200003e-01 1.911452e-10
2.299995e-01 1.901670e-10
2.399998e-01 1.874802e-10
2.500000e-01 1.830659e-10
2.600002e-01 1.769109e-10
2.699995e-01 1.690053e-10
2.799997e-01 1.593410e-10
2.900000e-01 1.479095e-10
3.000002e-01 1.347010e-10
3.099995e-01 1.197029e-10
3.199997e-01 1.028986e-10
3.299999e-01 8.426806e-11
3.400002e-01 6.378743e-11
3.499994e-01 4.142971e-11
3.599997e-01 1.716662e-11
3.699999e-01 -9.029675e-12
3.800001e-01 -3.718405e-11
3.899994e-01 -6.731463e-11
3.999996e-01 -9.942926e-11
4.099998e-01 -1.335210e-10
4.200001e-01 -1.695629e-10
4.299994e-01 -2.075030e-10
4.399996e-01 -2.472586e-10
4.499998e-01 -2.887101e-10
4.600000e-01 -3.316962e-10
4.700003e-01 -3.760059e-10
4.799995e-01 -4.213765e-10
4.899998e-01 -4.674854e-10
5.000000e-01 -5.139475e-10
5.100002e-01 -5.603105e-10
5.199995e-01 -6.060532e-10
5.299997e-01 -6.505834e-10
5.400000e-01 -6.932369e-10
5.500002e-01 -7.332797e-10
5.599995e-01 -7.699094e-10
5.699997e-01 -8.022594e-10
5.799999e-01 -8.294059e-10
5.900002e-01 -8.503722e-10
5.999994e-01 -8.641413e-10
6.099997e-01 -8.696633e-10
6.199999e-01 -8.658705e-10
6.300001e-01 -8.516886e-10
6.399994e-01 -8.260543e-10
6.499996e-01 -7.879301e-10
6.599998e-01 -7.363240e-10
6.700001e-01 -6.703058e-10
6.799994e-01 -5.890287e-10
6.899996e-01 -4.917489e-10
6.999998e-01 -3.778453e-10
7.100000e-01 -2.468408e-10
7.200003e-01 -9.842189e-11
7.299995e-01 6.754076e-11
7.399998e-01 2.509730e-10
7.500000e-01 4.515813e-10
7.600002e-01 6.688304e-10
7.699995e-01 9.019314e-10
7.799997e-01 1.149830e-09
7.900000e-01 1.411186e-09
8.000002e-01 1.684370e-09
8.099995e-01 1.967453e-09
8.199997e-01 2.258200e-09
8.299999e-01 2.554059e-09
8.400002e-01 2.852170e-09
8.499994e-01 3.149361e-09
8.599997e-01 3.442142e-09
8.699999e-01 3.726725e-09
8.800001e-01 3.999019e-09
8.899994e-01 4.254637e-09
8.999996e-01 4.488917e-09
9.099998e-01 4.696921e-09
9.200001e-01 4.873466e-09
9.299994e-01 5.013119e-09
9.399996e-01 5.110221e-09
9.499998e-01 5.158920e-09
9.600000e-01 5.153161e-09
9.700003e-01 5.086730e-09
9.799995e-01 4.953260e-09
9.899998e-01 4.746254e-09
1.000000e+00 4.459110e-09
1.010000e+00 4.085141e-09
1.020000e+00 3.617603e-09
1.030000e+00 3.049697e-09
1.040000e+00 2.374611e-09
1.050000e+00 1.585543e-09
1.059999e+00 6.757092e-10
1.070000e+00 -3.616274e-10
1.080000e+00 -1.533126e-09
1.090000e+00 -2.845351e-09
1.099999e+00 -4.304746e-09
1.110000e+00 -5.917622e-09
1.120000e+00 -7.690119e-09
1.130000e+00 -9.628174e-09
1.139999e+00 -1.173754e-08
1.150000e+00 -1.402371e-08
1.160000e+00 -1.649191e-08
1.170000e+00 -1.914711e-08
1.179999e+00 -2.199397e-08
1.190000e+00 -2.503680e-08
1.200000e+00 -2.827957e-08
1.210000e+00 -3.172586e-08
1.220000e+00 -3.537892e-08
1.230000e+00 -3.924151e-08
1.240000e+00 -4.331607e-08
1.250000e+00 -4.760448e-08
1.260000e+00 -5.210829e-08
1.270000e+00 -5.682854e-08
1.280000e+00 -6.176578e-08
1.290000e+00 -6.692024e-08
1.300000e+00 -7.229148e-08
1.309999e+00 -7.787884e-08
1.320000e+00 -8.368104e-08
1.330000e+00 -8.969652e-08
1.340000e+00 -9.592326e-08
1.349999e+00 -1.023588e-07
1.360000e+00 -1.090005e-07
1.370000e+00 -1.158454e-07
1.380000e+00 -1.228901e-07
1.389999e+00 -1.301312e-07
1.400000e+00 -1.375651e-07
1.410000e+00 -1.451878e-07
1.420000e+00 -1.529958e-07
1.429999e+00 -1.609851e-07
1.440000e+00 -1.691522e-07
1.450000e+00 -1.774933e-07
1.460000e+00 -1.860054e-07
1.469999e+00 -1.946853e-07
1.480000e+00 -2.035303e-07
1.490000e+00 -2.125380e-07
1.500000e+00 -2.217070e-07
1.510000e+00 -2.310358e-07
1.520000e+00 -2.405242e-07
1.530000e+00 -2.501720e-07
1.540000e+00 -2.599803e-07
1.550000e+00 -2.699504e-07
1.559999e+00 -2.800853e-07
1.570000e+00 -2.903885e-07
1.580000e+00 -3.008639e-07
1.590000e+00 -3.115172e-07
1.599999e+00 -3.223543e-07
1.610000e+00 -3.333830e-07
1.620000e+00 -3.446111e-07
1.630000e+00 -3.560480e-07
1.639999e+00 -3.677042e-07
1.650000e+00 -3.795905e-07
1.660000e+00 -3.917196e-07
1.670000e+00 -4.041044e-07
1.679999e+00 -4.167590e-07
1.690000e+00 -4.296984e-07
1.700000e+00 -4.429385e-07
1.710000e+00 -4.564956e-07
1.719999e+00 -4.703873e-07
1.730000e+00 -4.846313e-07
1.740000e+00 -4.992464e-07
1.750000e+00 -5.142520e-07
1.760000e+00 -5.296676e-07
1.770000e+00 -5.455141e-07
1.780000e+00 -5.618112e-07
1.790000e+00 -5.785810e-07
1.800000e+00 -5.958445e-07
1.809999e+00 -6.136236e-07
1.820000e+00 -6.319402e-07
1.830000e+00 -6.508164e-07
1.840000e+00 -6.702747e-07
1.849999e+00 -6.903371e-07
1.860000e+00 -7.110269e-07
1.870000e+00 -7.323669e-07
1.880000e+00 -7.543792e-07
1.889999e+00 -7.770871e-07
1.900000e+00 -8.005136e-07
1.910000e+00 -8.246810e-07
1.920000e+00 -8.496129e-07
1.929999e+00 -8.753321e-07
1.940000e+00 -9.018606e-07
1.950000e+00 -9.292228e-07
1.960000e+00 -9.574409e-07
1.969999e+00 -9.865386e-07
1.980000e+00 -1.016538e-06
1.990000e+00 -1.047464e-06
2.000000e+00 -1.079339e-06
2.010000e+00 -1.112186e-06
2.020000e+00 -1.146030e-06
2.030000e+00 -1.180893e-06
2.040000e+00 -1.216800e-06
2.050000e+00 -1.253777e-06
2.059999e+00 -1.291845e-06
2.070000e+00 -1.331031e-06
2.080000e+00 -1.371359e-06
2.090000e+00 -1.412856e-06
2.099999e+00 -1.455546e-06
2.110000e+00 -1.499456e-06
2.120000e+00 -1.544613e-06
2.130000e+00 -1.591043e-06
2.139999e+00 -1.638775e-06
2.150000e+00 -1.687836e-06
2.160000e+00 -1.738255e-06
2.170000e+00 -1.790062e-06
2.179999e+00 -1.843287e-06
2.190000e+00 -1.897960e-06
2.200000e+00 -1.954114e-06
2.210000e+00 -2.011780e-06
2.219999e+00 -2.070992e-06
2.230000e+00 -2.131784e-06
2.240000e+00 -2.194189e-06
2.250000e+00 -2.258248e-06
2.260000e+00 -2.323995e-06
2.270000e+00 -2.391468e-06
2.280000e+00 -2.460707e-06
2.290000e+00 -2.531755e-06
2.300000e+00 -2.604650e-06
2.309999e+00 -2.679438e-06
2.320000e+00 -2.756163e-06
2.330000e+00 -2.834871e-06
2.340000e+00 -2.915610e-06
2.349999e+00 -2.998427e-06
2.360000e+00 -3.083378e-06
2.370000e+00 -3.170509e-06
2.380000e+00 -3.259877e-06
2.389999e+00 -3.351537e-06
2.400000e+00 -3.445548e-06
2.410000e+00 -3.541966e-06
2.420000e+00 -3.640854e-06
2.429999e+00 -3.742277e-06
2.440000e+00 -3.846294e-06
2.450000e+00 -3.952976e-06
2.460000e+00 -4.062390e-06
2.469999e+00 -4.174606e-06
2.480000e+00 -4.289697e-06
2.490000e+00 -4.407736e-06
2.500000e+00 -4.528800e-06
2.510000e+00 -4.652969e-06
2.520000e+00 -4.780320e-06
2.530000e+00 -4.910938e-06
2.540000e+00 -5.044901e-06
2.550000e+00 -5.182299e-06
2.559999e+00 -5.323221e-06
2.570000e+00 -5.467753e-06
2.580000e+00 -5.615987e-06
2.590000e+00 -5.768017e-06
2.599999e+00 -5.923937e-06
2.610000e+00 -6.083842e-06
2.620000e+00 -6.247834e-06
2.630000e+00 -6.416010e-06
2.639999e+00 -6.588470e-06
2.650000e+00 -6.765320e-06
2.660000e+00 -6.946661e-06
2.670000e+00 -7.132601e-06
2.679999e+00 -7.323242e-06
2.690000e+00 -7.518700e-06
2.700000e+00 -7.719083e-06
2.710000e+00 -7.924497e-06
2.719999e+00 -8.135058e-06
2.730000e+00 -8.350873e-06
2.740000e+00 -8.572075e-06
2.750000e+00 -8.798762e-06
2.760000e+00 -9.031064e-06
2.770000e+00 -9.269083e-06
2.780000e+00 -9.512954e-06
2.790000e+00 -9.762795e-06
2.800000e+00 -1.001873e-05
2.809999e+00 -1.028087e-05
2.820000e+00 -1.054936e-05
2.830000e+00 -1.082432e-05
2.840000e+00 -1.110588e-05
2.849999e+00 -1.139416e-05
2.860000e+00 -1.168931e-05
2.870000e+00 -1.199146e-05
2.880000e+00 -1.230074e-05
2.889999e+00 -1.261730e-05
2.900000e+00 -1.294128e-05
2.910000e+00 -1.327282e-05
2.920000e+00 -1.361207e-05
2.929999e+00 -1.395918e-05
2.940000e+00 -1.431430e-05
2.950000e+00 -1.467761e-05
2.960000e+00 -1.504925e-05