-8.000000e+00 0.000000e+00
-7.950000e+00 0.000000e+00
-7.900000e+00 0.000000e+00
-7.850000e+00 0.000000e+00
-7.800000e+00 0.000000e+00
-7.750000e+00 0.000000e+00
-7.700000e+00 0.000000e+00
-7.650000e+00 0.000000e+00
-7.600000e+00 0.000000e+00
-7.550000e+00 0.000000e+00
-7.500000e+00 0.000000e+00
-7.450000e+00 0.000000e+00
-7.400000e+00 0.000000e+00
-7.350000e+00 0.000000e+00
-7.300000e+00 0.000000e+00
-7.250000e+00 0.000000e+00
-7.200000e+00 0.000000e+00
-7.150000e+00 0.000000e+00
-7.100000e+00 0.000000e+00
-7.050000e+00 0.000000e+00
-7.000000e+00 0.000000e+00
-6.950000e+00 0.000000e+00
-6.900000e+00 0.000000e+00
-6.850000e+00 0.000000e+00
-6.800000e+00 0.000000e+00
-6.750000e+00 0.000000e+00
-6.700000e+00 0.000000e+00
-6.650000e+00 0.000000e+00
-6.600000e+00 0.000000e+00
-6.550000e+00 0.000000e+00
-6.500000e+00 0.000000e+00
-6.450000e+00 0.000000e+00
-6.400000e+00 0.000000e+00
-6.350000e+00 0.000000e+00
-6.300000e+00 0.000000e+00
-6.250000e+00 0.000000e+00
-6.200000e+00 0.000000e+00
-6.150000e+00 0.000000e+00
-6.100000e+00 0.000000e+00
-6.050000e+00 0.000000e+00
-6.000000e+00 0.000000e+00
-5.950000e+00 0.000000e+00
-5.900000e+00 0.000000e+00
-5.850000e+00 0.000000e+00
-5.800000e+00 0.000000e+00
-5.750000e+00 0.000000e+00
-5.700000e+00 0.000000e+00
-5.650000e+00 0.000000e+00
-5.600000e+00 0.000000e+00
-5.550000e+00 0.000000e+00
-5.500000e+00 0.000000e+00
-5.450000e+00 0.000000e+00
-5.400000e+00 0.000000e+00
-5.350000e+00 0.000000e+00
-5.300000e+00 0.000000e+00
-5.250000e+00 0.000000e+00
-5.200000e+00 0.000000e+00
-5.150000e+00 0.000000e+00
-5.100000e+00 0.000000e+00
-5.050000e+00 0.000000e+00
-5.000000e+00 0.000000e+00
-4.950000e+00 0.000000e+00
-4.900000e+00 0.000000e+00
-4.850000e+00 0.000000e+00
-4.800000e+00 0.000000e+00
-4.750000e+00 0.000000e+00
-4.700000e+00 1.401298e-45
-4.650000e+00 2.802597e-45
-4.600000e+00 -1.401298e-45
-4.550000e+00 -8.407791e-45
-4.500000e+00 -9.809089e-45
-4.450000e+00 1.261169e-44
-4.400000e+00 5.745324e-44
-4.350000e+00 8.688050e-44
-4.300000e+00 -2.662467e-44
-4.250000e+00 -2.998779e-43
-4.200000e+00 -6.165713e-43
-4.150000e+00 -4.301986e-43
-4.100000e+00 5.927493e-43
-4.050000e+00 1.893154e-42
-4.000000e+00 1.785254e-42
-3.950000e+00 -1.093013e-42
-3.900000e+00 -5.955518e-42
-3.850000e+00 -8.243839e-42
-3.800000e+00 -1.230340e-42
-3.750000e+00 1.747279e-41
-3.700000e+00 3.607503e-41
-3.650000e+00 2.526261e-41
-3.600000e+00 -4.317961e-41
-3.550000e+00 -1.489706e-40
-3.500000e+00 -1.749241e-40
-3.450000e+00 5.875925e-41
-3.400000e+00 5.852663e-40
-3.350000e+00 9.685579e-40
-3.300000e+00 2.650948e-40
-3.250000e+00 -2.132548e-39
-3.200000e+00 -4.769731e-39
-3.150000e+00 -3.222849e-39
-3.100000e+00 6.822108e-39
-3.050000e+00 2.139791e-38
-3.000000e+00 2.160434e-38
-2.950000e+00 -1.663218e-38
-2.900000e+00 -8.735907e-38
-2.850000e+00 -1.170017e-37
-2.800000e+00 1.159918e-38
-2.750000e+00 3.203137e-37
-2.700000e+00 5.514682e-37
-2.650000e+00 1.921759e-37
-2.600000e+00 -1.025781e-36
-2.550000e+00 -2.314073e-36
-2.500000e+00 -1.633421e-36
-2.450000e+00 2.686732e-36
-2.400000e+00 8.688729e-36
-2.350000e+00 9.007817e-36
-2.300000e+00 -4.544414e-36
-2.250000e+00 -2.901125e-35
-2.200000e+00 -4.041921e-35
-2.150000e+00 -4.270667e-36
-2.100000e+00 8.435184e-35
-2.050000e+00 1.564357e-34
-2.000000e+00 8.324636e-35
-1.950000e+00 -2.021218e-34
-1.900000e+00 -5.316809e-34
-1.850000e+00 -4.757954e-34
-1.800000e+00 3.300613e-34
-1.750000e+00 1.583798e-33
-1.700000e+00 2.006476e-33
-1.650000e+00 8.710112e-35
-1.600000e+00 -4.040998e-33
-1.550000e+00 -7.037190e-33
-1.500000e+00 -3.612847e-33
-1.450000e+00 8.234099e-33
-1.400000e+00 2.117340e-32
-1.350000e+00 1.909301e-32
-1.300000e+00 -1.005673e-32
-1.250000e+00 -5.445833e-32
-1.200000e+00 -7.126818e-32
-1.150000e+00 -1.319163e-32
-1.100000e+00 1.149861e-31
-1.050000e+00 2.157947e-31
-1.000000e+00 1.400186e-31
-9.499998e-01 -1.724019e-31
-9.000001e-01 -5.432731e-31
-8.499999e-01 -5.763063e-31
-7.999997e-01 4.196517e-32
-7.500000e-01 1.104145e-30
-6.999998e-01 1.726189e-30
-6.500001e-01 8.686298e-31
-5.999999e-01 -1.585554e-30
-5.499997e-01 -4.053154e-30
-5.000000e-01 -3.864729e-30
-4.499998e-01 5.172400e-31
-4.000001e-01 7.147093e-30
-3.499999e-01 1.061383e-29
-2.999997e-01 5.727723e-30
-2.500000e-01 -7.151816e-30
-1.999998e-01 -1.995869e-29
-1.500001e-01 -2.150307e-29
-9.999990e-02 -6.563075e-30
-4.999971e-02 1.839983e-29
0.000000e+00 3.938353e-29
5.000019e-02 4.545918e-29
1.000004e-01 3.334180e-29
1.500006e-01 -1.311742e-30
1.999998e-01 -7.201377e-29
2.500000e-01 -1.805900e-28
3.000002e-01 -2.629021e-28
3.500004e-01 -1.597674e-28
4.000006e-01 2.872824e-28
4.499998e-01 9.882485e-28
5.000000e-01 1.381005e-27
5.500002e-01 5.873905e-28
6.000004e-01 -1.816944e-27
6.500006e-01 -4.751188e-27
6.999998e-01 -5.336928e-27
7.500000e-01 -4.919190e-28
8.000002e-01 9.674969e-27
8.500004e-01 1.896063e-26
9.000006e-01 1.641863e-26
9.499998e-01 -5.844719e-27
1.000000e+00 -4.154185e-26
1.050000e+00 -6.498703e-26
1.100000e+00 -4.200772e-26
1.150001e+00 4.183539e-26
1.200000e+00 1.514195e-25
1.250000e+00 1.993353e-25
1.300000e+00 9.245349e-26
1.350000e+00 -1.827120e-25
1.400001e+00 -4.906038e-25
1.450000e+00 -5.691586e-25
1.500000e+00 -1.842939e-25
1.550000e+00 6.386089e-25
1.600000e+00 1.464894e-24
1.650001e+00 1.566869e-24
1.700000e+00 3.705346e-25
1.750000e+00 -1.948910e-24
1.800000e+00 -4.140557e-24
1.850000e+00 -4.260763e-24
1.900001e+00 -8.753140e-25
1.950000e+00 5.424274e-24
2.000000e+00 1.125622e-23
2.050000e+00 1.152062e-23
2.100000e+00 2.536754e-24
2.150001e+00 -1.408052e-23
2.200000e+00 -2.953257e-23
2.250000e+00 -3.067147e-23
2.300000e+00 -8.054685e-24
2.350000e+00 3.426734e-23
2.400001e+00 7.419158e-23
2.450000e+00 7.895058e-23
2.500000e+00 2.522470e-23
2.550000e+00 -7.722278e-23
2.600000e+00 -1.755325e-22
2.650001e+00 -1.926237e-22
2.700000e+00 -7.476381e-23
2.750000e+00 1.556611e-22
2.800000e+00 3.813786e-22
2.850000e+00 4.359802e-22
2.900001e+00 2.071240e-22
2.950000e+00 -2.585227e-22
3.000000e+00 -7.286853e-22
3.050000e+00 -8.869457e-22
3.100000e+00 -5.296687e-22
3.150001e+00 2.603344e-22
3.200000e+00 1.101433e-21
3.250000e+00 1.512191e-21
3.300000e+00 1.214577e-21
3.350000e+00 3.216251e-22
3.400001e+00 -7.608197e-22
3.450000e+00 -1.665137e-21
3.500000e+00 -2.324864e-21
3.550000e+00 -2.838166e-21
3.600000e+00 -2.925589e-21
3.650001e+00 -1.499500e-21
3.700000e+00 2.871503e-21
3.750000e+00 1.027806e-20
3.800000e+00 1.743227e-20
3.850000e+00 1.732871e-20
3.900001e+00 2.598196e-21
3.950000e+00 -2.759859e-20
4.000000e+00 -6.092305e-20
4.050000e+00 -7.194079e-20
4.100000e+00 -3.403362e-20
4.150001e+00 5.872874e-20
4.200000e+00 1.716651e-19
4.250000e+00 2.297449e-19
4.300000e+00 1.511496e-19
4.350000e+00 -9.203703e-20
4.400001e+00 -4.180935e-19
4.450000e+00 -6.321986e-19
4.500000e+00 -5.086662e-19
4.550000e+00 5.586796e-20
4.600000e+00 8.962546e-19
4.650001e+00 1.554469e-18
4.700000e+00 1.460194e-18
4.750000e+00 2.883061e-19
4.800000e+00 -1.680927e-18
4.850000e+00 -3.461441e-18
4.900001e+00 -3.720103e-18
4.950000e+00 -1.554450e-18
5.000000e+00 2.672236e-18
5.050000e+00 7.006654e-18
5.100000e+00 8.550557e-18
5.150001e+00 5.048165e-18
5.200000e+00 -3.287882e-18
5.250000e+00 -1.288325e-17
5.300000e+00 -1.785146e-17
5.350000e+00 -1.305890e-17
5.400001e+00 2.095529e-18
5.450000e+00 2.150810e-17
5.500000e+00 3.393715e-17
5.550000e+00 2.868382e-17
5.600000e+00 3.042976e-18
5.650001e+00 -3.296524e-17
5.700000e+00 -5.890296e-17
5.750000e+00 -5.428250e-17
5.800000e+00 -1.269466e-17
5.850000e+00 4.893237e-17
5.900001e+00 9.437368e-17
5.950000e+00 8.744640e-17
6.000000e+00 1.818184e-17
6.050000e+00 -8.099898e-17
6.100000e+00 -1.450371e-16
6.150001e+00 -1.144669e-16
6.200000e+00 1.620910e-17
6.250000e+00 1.737820e-16
6.300000e+00 2.345855e-16
6.350000e+00 1.055172e-16
6.400001e+00 -1.847938e-16
6.450000e+00 -4.544917e-16
6.500000e+00 -4.497542e-16
6.550000e+00 -2.458991e-17
6.600000e+00 6.819145e-16
6.650001e+00 1.217391e-15
6.700000e+00 1.031690e-15
6.750000e+00 -1.215897e-16
6.800000e+00 -1.831947e-15
6.850000e+00 -3.032607e-15
6.900001e+00 -2.520896e-15
6.950000e+00 1.695357e-16
7.000000e+00 4.063646e-15
7.050000e+00 6.826444e-15
7.100000e+00 5.913298e-15
7.150001e+00 3.735543e-16
7.200000e+00 -7.777999e-15
7.250000e+00 -1.382306e-14
7.300000e+00 -1.268843e-14
7.350000e+00 -2.454372e-15
7.400001e+00 1.311358e-14
7.450000e+00 2.520806e-14
7.500000e+00 2.445021e-14
7.550000e+00 7.266583e-15
7.600000e+00 -1.977959e-14
7.650001e+00 -4.145674e-14
7.700000e+00 -4.187032e-14
7.750000e+00 -1.524480e-14
7.800000e+00 2.739613e-14
7.850000e+00 6.154056e-14
7.900001e+00 6.280396e-14
7.950000e+00 2.379928e-14
8.000000e+00 -3.699073e-14
8.050001e+00 -8.264143e-14
8.100000e+00 -7.998162e-14
8.150000e+00 -2.381950e-14
8.200001e+00 5.407391e-14
8.250000e+00 1.012310e-13
8.300001e+00 7.942997e-14
8.350000e+00 -3.908800e-15
8.400000e+00 -9.261230e-14
8.450001e+00 -1.157793e-13
8.500000e+00 -4.109987e-14
8.550001e+00 8.988872e-14
8.600000e+00 1.772027e-13
8.650000e+00 1.293715e-13
8.700001e+00 -5.795969e-14
8.750000e+00 -2.719115e-13
8.800001e+00 -3.388880e-13
8.850000e+00 -1.475338e-13
8.900000e+00 2.407558e-13
8.950001e+00 5.854845e-13
9.000000e+00 6.007289e-13
9.050001e+00 1.649604e-13
9.100000e+00 -5.346023e-13
9.150000e+00 -1.053791e-12
9.200001e+00 -9.548930e-13
9.250000e+00 -1.386437e-13
9.300001e+00 9.893035e-13
9.350000e+00 1.687470e-12
9.400000e+00 1.342892e-12
9.450001e+00 -4.310492e-14
9.500000e+00 -1.706300e-12
9.550001e+00 -2.501510e-12
9.600000e+00 -1.657386e-12
9.650000e+00 5.700937e-13
9.700001e+00 2.854557e-12
9.750000e+00 3.537375e-12
9.800001e+00 1.774592e-12
9.850000e+00 -1.666608e-12
9.900000e+00 -4.627010e-12
9.950001e+00 -4.845157e-12
1.000000e+01 -1.591240e-12
1.005000e+01 3.487751e-12
1.010000e+01 7.093747e-12
1.015000e+01 6.353818e-12
1.020000e+01 9.861592e-13
1.025000e+01 -6.016565e-12
1.030000e+01 -9.966162e-12
1.035000e+01 -7.577677e-12
1.040000e+01 4.133962e-13
1.045000e+01 9.125888e-12
1.050000e+01 1.242793e-11
1.055000e+01 7.235479e-12
1.060000e+01 -3.731832e-12
1.065000e+01 -1.305500e-11
1.070000e+01 -1.342451e-11
1.075000e+01 -3.195564e-12
1.080000e+01 1.135901e-11
1.085000e+01 1.939846e-11
1.090000e+01 1.297303e-11
1.095000e+01 -6.266529e-12
1.100000e+01 -2.630797e-11
1.105000e+01 -3.167735e-11
1.110000e+01 -1.431478e-11
1.115000e+01 1.888859e-11
1.120000e+01 4.806032e-11
1.125000e+01 5.209128e-11
1.130000e+01 2.332005e-11
1.135000e+01 -2.494834e-11
1.140000e+01 -6.459796e-11
1.145000e+01 -7.012462e-11
1.150000e+01 -3.639777e-11
1.155000e+01 1.596697e-11
1.160000e+01 5.309475e-11
1.165000e+01 5.133180e-11
1.170000e+01 1.578051e-11
1.175000e+01 -2.066755e-11
1.180000e+01 -1.997361e-11
1.185000e+01 3.044991e-11
1.190000e+01 1.010862e-10
1.195000e+01 1.327752e-10
1.200000e+01 7.450311e-11
1.205000e+01 -7.639891e-11
1.210000e+01 -2.599639e-10
1.215000e+01 -3.793570e-10
1.220000e+01 -3.546966e-10
1.225000e+01 -1.720500e-10
1.230000e+01 1.052612e-10
1.235000e+01 3.726319e-10
1.240000e+01 5.447013e-10
1.245000e+01 5.988560e-10
1.250000e+01 5.699368e-10
1.255000e+01 4.987963e-10
1.260000e+01 3.736657e-10
1.265000e+01 1.145619e-10
1.270000e+01 -3.746522e-10
1.275000e+01 -1.110491e-09
1.280000e+01 -1.953107e-09
1.285000e+01 -2.610545e-09
1.290000e+01 -2.740518e-09
1.295000e+01 -2.102990e-09
1.300000e+01 -6.780925e-10
1.305000e+01 1.320313e-09
1.310000e+01 3.541034e-09
1.315000e+01 5.635916e-09
1.320000e+01 7.349069e-09
1.325000e+01 8.497101e-09
1.330000e+01 8.864159e-09
1.335000e+01 8.105738e-09
1.340000e+01 5.760695e-09
1.345000e+01 1.400949e-09
1.350000e+01 -5.153945e-09
1.355000e+01 -1.369437e-08
1.360000e+01 -2.366216e-08
1.365000e+01 -3.438232e-08
1.370000e+01 -4.537045e-08
1.375000e+01 -5.654837e-08
1.380000e+01 -6.825476e-08
1.385000e+01 -8.106729e-08
1.390000e+01 -9.557269e-08
1.395000e+01 -1.122447e-07
1.400000e+01 -1.315017e-07
1.405000e+01 -1.538765e-07
1.410000e+01 -1.801379e-07
1.415000e+01 -2.112365e-07
1.420000e+01 -2.480819e-07
1.425000e+01 -2.913027e-07
1.430000e+01 -3.411884e-07
1.435000e+01 -3.979048e-07
1.440000e+01 -4.618943e-07
1.445000e+01 -5.342244e-07
1.450000e+01 -6.166591e-07
1.455000e+01 -7.114039e-07
1.460000e+01 -8.206911e-07
1.465000e+01 -9.464980e-07
1.470000e+01 -1.090605e-06
1.475000e+01 -1.254970e-06
1.480000e+01 -1.442163e-06
1.485000e+01 -1.655548e-06
1.490000e+01 -1.899056e-06
1.495000e+01 -2.176696e-06
1.500000e+01 -2.492157e-06
1.505000e+01 -2.848838e-06
1.510000e+01 -3.250365e-06
1.515000e+01 -3.701352e-06
1.520000e+01 -4.207919e-06
1.525000e+01 -4.777695e-06
1.530000e+01 -5.419251e-06
1.535000e+01 -6.141378e-06
1.540000e+01 -6.952674e-06
1.545000e+01 -7.861709e-06
1.550000e+01 -8.877687e-06
1.555000e+01 -1.001112e-05
1.560000e+01 -1.127415e-05
1.565000e+01 -1.268031e-05
1.570000e+01 -1.424390e-05
1.575000e+01 -1.597969e-05
1.580000e+01 -1.790301e-05
1.585000e+01 -2.003041e-05
1.590000e+01 -2.238041e-05
1.595000e+01 -2.497378e-05
1.600000e+01 -2.783318e-05
1.605000e+01 -3.098220e-05
1.610000e+01 -3.444453e-05
1.615000e+01 -3.824374e-05
1.620000e+01 -4.240387e-05
1.625000e+01 -4.695066e-05
1.630000e+01 -5.191243e-05
1.635000e+01 -5.732037e-05
1.640000e+01 -6.320782e-05
1.645000e+01 -6.960921e-05
1.650000e+01 -7.655889e-05
1.655000e+01 -8.409078e-05
1.660000e+01 -9.223880e-05
1.665000e+01 -1.010373e-04
1.670000e+01 -1.105217e-04
1.675000e+01 -1.207288e-04
1.680000e+01 -1.316958e-04
1.685000e+01 -1.434602e-04
1.690000e+01 -1.560585e-04
1.695000e+01 -1.695264e-04
1.700000e+01 -1.838980e-04
1.705000e+01 -1.992062e-04
1.710000e+01 -2.154814e-04
1.715000e+01 -2.327520e-04
1.720000e+01 -2.510434e-04
1.725000e+01 -2.703784e-04
1.730000e+01 -2.907768e-04
1.735000e+01 -3.122548e-04
1.740000e+01 -3.348244e-04
1.745000e+01 -3.584928e-04
1.750000e+01 -3.832598e-04
1.755000e+01 -4.091188e-04
1.760000e+01 -4.360550e-04
1.765000e+01 -4.640468e-04
1.770000e+01 -4.930656e-04
1.775000e+01 -5.230756e-04
1.780000e+01 -5.540334e-04
1.785000e+01 -5.858853e-04
1.790000e+01 -6.185677e-04
1.795000e+01 -6.520044e-04
1.800000e+01 -6.861091e-04
1.805000e+01 -7.207846e-04
1.810000e+01 -7.559225e-04
1.815000e+01 -7.914047e-04
1.820000e+01 -8.271014e-04
1.825000e+01 -8.628707e-04
1.830000e+01 -8.985588e-04
1.835000e+01 -9.339996e-04
1.840000e+01 -9.690168e-04
1.845000e+01 -1.003423e-03
1.850000e+01 -1.037026e-03
1.855000e+01 -1.069618e-03
1.860000e+01 -1.100987e-03
1.865000e+01 -1.130910e-03
1.870000e+01 -1.159156e-03
1.875000e+01 -1.185488e-03
1.880000e+01 -1.209664e-03
1.885000e+01 -1.231436e-03
1.890000e+01 -1.250562e-03
1.895000e+01 -1.266795e-03
1.900000e+01 -1.279892e-03
1.905000e+01 -1.289613e-03
1.910000e+01 -1.295720e-03
1.915000e+01 -1.297981e-03
1.920000e+01 -1.296175e-03
1.925000e+01 -1.290088e-03
1.930000e+01 -1.279522e-03
1.935000e+01 -1.264291e-03
1.940000e+01 -1.244230e-03
1.945000e+01 -1.219191e-03
1.950000e+01 -1.189047e-03
1.955000e+01 -1.153694e-03
1.960000e+01 -1.113047e-03
1.965000e+01 -1.067054e-03
1.970000e+01 -1.015684e-03
1.975000e+01 -9.589378e-04
1.980000e+01 -8.968487e-04
1.985000e+01 -8.294787e-04
1.990000e+01 -7.569229e-04
1.995000e+01 -6.793094e-04
2.000000e+01 -5.967981e-04
2.005000e+01 -5.095818e-04
2.010000e+01 -4.178870e-04
2.015000e+01 -3.219723e-04
2.020000e+01 -2.221292e-04
2.025000e+01 -1.186809e-04
2.030000e+01 -1.198019e-05
2.035000e+01 9.759120e-05
2.040000e+01 2.096252e-04
2.045000e+01 3.236891e-04
2.050000e+01 4.393278e-04
2.055000e+01 5.560656e-04
2.060000e+01 6.734094e-04
2.065000e+01 7.908511e-04
2.070000e+01 9.078711e-04
2.075000e+01 1.023943e-03
2.080000e+01 1.138535e-03
2.085000e+01 1.251113e-03
2.090000e+01 1.361149e-03
2.095000e+01 1.468117e-03
2.100000e+01 1.571501e-03
2.105000e+01 1.670796e-03
2.110000e+01 1.765514e-03
2.115000e+01 1.855189e-03
2.120000e+01 1.939377e-03
2.125000e+01 2.017661e-03
2.130000e+01 2.089657e-03
2.135000e+01 2.155010e-03
2.140000e+01 2.213399e-03
2.145000e+01 2.264542e-03
2.150000e+01 2.308194e-03
2.155000e+01 2.344150e-03
2.160000e+01 2.372251e-03
2.165000e+01 2.392379e-03
2.170000e+01 2.404460e-03
2.175000e+01 2.408468e-03
2.180000e+01 2.404420e-03
2.185000e+01 2.392379e-03
2.190000e+01 2.372449e-03
2.195000e+01 2.344779e-03
2.200000e+01 2.309557e-03
2.205000e+01 2.267014e-03
2.210000e+01 2.217417e-03
2.215000e+01 2.161072e-03
2.220000e+01 2.098319e-03
2.225000e+01 2.029526e-03
2.230000e+01 1.955090e-03
2.235000e+01 1.875431e-03
2.240000e+01 1.790994e-03
2.245000e+01 1.702240e-03
2.250000e+01 1.609648e-03
2.255000e+01 1.513707e-03
2.260000e+01 1.414917e-03
2.265000e+01 1.313781e-03
2.270000e+01 1.210805e-03
2.275000e+01 1.106490e-03
2.280000e+01 1.001332e-03
2.285000e+01 8.958192e-04
2.290000e+01 7.904269e-04
2.295000e+01 6.856174e-04
2.300000e+01 5.818384e-04
2.305000e+01 4.795178e-04
2.310000e+01 3.790625e-04
2.315000e+01 2.808555e-04
2.320000e+01 1.852528e-04
2.325000e+01 9.258444e-05
2.330000e+01 3.152152e-06
2.335000e+01 -8.277061e-05
2.340000e+01 -1.649398e-04
2.345000e+01 -2.431418e-04
2.350000e+01 -3.171941e-04
2.355000e+01 -3.869450e-04
2.360000e+01 -4.522727e-04
2.365000e+01 -5.130838e-04
2.370000e+01 -5.693129e-04
2.375000e+01 -6.209212e-04
2.380000e+01 -6.678989e-04
2.385000e+01 -7.102627e-04
2.390000e+01 -7.480538e-04
2.395000e+01 -7.813385e-04
2.400000e+01 -8.102020e-04
2.405000e+01 -8.347495e-04
2.410000e+01 -8.551036e-04
2.415000e+01 -8.714034e-04
2.420000e+01 -8.838037e-04
2.425000e+01 -8.924711e-04
2.430000e+01 -8.975834e-04
2.435000e+01 -8.993266e-04
2.440000e+01 -8.978941e-04
2.445000e+01 -8.934856e-04
2.450000e+01 -8.863054e-04
2.455000e+01 -8.765606e-04
2.460000e+01 -8.644594e-04
2.465000e+01 -8.502087e-04
2.470000e+01 -8.340129e-04
2.475000e+01 -8.160736e-04
2.480000e+01 -7.965899e-04
2.485000e+01 -7.757553e-04
2.490000e+01 -7.537578e-04
2.495000e+01 -7.307770e-04
2.500000e+01 -7.069845e-04
2.505000e+01 -6.825431e-04
2.510000e+01 -6.576094e-04
2.515000e+01 -6.323310e-04
2.520000e+01 -6.068472e-04
2.525000e+01 -5.812868e-04
2.530000e+01 -5.557684e-04
2.535000e+01 -5.304003e-04
2.540000e+01 -5.052815e-04
2.545000e+01 -4.805032e-04
2.550000e+01 -4.561478e-04
2.555000e+01 -4.322885e-04
2.560000e+01 -4.089894e-04
2.565000e+01 -3.863046e-04
2.570000e+01 -3.642797e-04
2.575000e+01 -3.429535e-04
2.580000e+01 -3.223586e-04
2.585000e+01 -3.025212e-04
2.590000e+01 -2.834612e-04
2.595000e+01 -2.651917e-04
2.600000e+01 -2.477200e-04
2.605000e+01 -2.310479e-04
2.610000e+01 -2.151736e-04
2.615000e+01 -2.000912e-04
2.620000e+01 -1.857912e-04
2.625000e+01 -1.722604e-04
2.630000e+01 -1.594823e-04
2.635000e+01 -1.474383e-04
2.640000e+01 -1.361080e-04
2.645000e+01 -1.254698e-04
2.650000e+01 -1.155004e-04
2.655000e+01 -1.061749e-04
2.660000e+01 -9.746665e-05
2.665000e+01 -8.934821e-05
2.670000e+01 -8.179193e-05
2.675000e+01 -7.477085e-05
2.680000e+01 -6.825863e-05
2.685000e+01 -6.222924e-05
2.690000e+01 -5.665635e-05
2.695000e+01 -5.151359e-05
2.700000e+01 -4.677491e-05
2.705000e+01 -4.241529e-05
2.710000e+01 -3.841097e-05
2.715000e+01 -3.473925e-05
2.720000e+01 -3.137809e-05
2.725000e+01 -2.830574e-05
2.730000e+01 -2.550096e-05
2.735000e+01 -2.294354e-05
2.740000e+01 -2.061493e-05
2.745000e+01 -1.849815e-05
2.750000e+01 -1.657748e-05
2.755000e+01 -1.483785e-05
2.760000e+01 -1.326453e-05
2.765000e+01 -1.184327e-05
2.770000e+01 -1.056077e-05
2.775000e+01 -9.404980e-06
2.780000e+01 -8.365011e-06
2.785000e+01 -7.430754e-06
2.790000e+01 -6.592543e-06
2.795000e+01 -5.841182e-06
2.800000e+01 -5.168304e-06
2.805000e+01 -4.566676e-06
2.810000e+01 -4.030077e-06
2.815000e+01 -3.552772e-06
2.820000e+01 -3.128945e-06
2.825000e+01 -2.752583e-06
2.830000e+01 -2.417938e-06
2.835000e+01 -2.120197e-06
2.840000e+01 -1.855778e-06
2.845000e+01 -1.621963e-06
2.850000e+01 -1.416140e-06
2.855000e+01 -1.235249e-06
2.860000e+01 -1.075909e-06
2.865000e+01 -9.350800e-07
2.870000e+01 -8.106951e-07
2.875000e+01 -7.016682e-07
2.880000e+01 -6.072416e-07
2.885000e+01 -5.261891e-07
2.890000e+01 -4.565215e-07
2.895000e+01 -3.959238e-07
2.900000e+01 -3.425289e-07
2.905000e+01 -2.953676e-07
2.910000e+01 -2.541401e-07
2.915000e+01 -2.185483e-07
2.920000e+01 -1.878032e-07
2.925000e+01 -1.607404e-07
2.930000e+01 -1.364171e-07
2.935000e+01 -1.146282e-07
2.940000e+01 -9.585077e-08
2.945000e+01 -8.063347e-08
