-8.000000e+00 0.000000e+00
-7.990000e+00 0.000000e+00
-7.980000e+00 0.000000e+00
-7.970000e+00 0.000000e+00
-7.960000e+00 0.000000e+00
-7.950000e+00 0.000000e+00
-7.940000e+00 0.000000e+00
-7.930000e+00 0.000000e+00
-7.920000e+00 0.000000e+00
-7.910000e+00 0.000000e+00
-7.900000e+00 0.000000e+00
-7.890000e+00 0.000000e+00
-7.880000e+00 0.000000e+00
-7.870000e+00 0.000000e+00
-7.860000e+00 0.000000e+00
-7.850000e+00 0.000000e+00
-7.840000e+00 0.000000e+00
-7.830000e+00 0.000000e+00
-7.820000e+00 0.000000e+00
-7.810000e+00 0.000000e+00
-7.800000e+00 0.000000e+00
-7.790000e+00 0.000000e+00
-7.780000e+00 0.000000e+00
-7.770000e+00 0.000000e+00
-7.760000e+00 0.000000e+00
-7.750000e+00 0.000000e+00
-7.740000e+00 0.000000e+00
-7.730000e+00 0.000000e+00
-7.720000e+00 0.000000e+00
-7.710000e+00 0.000000e+00
-7.700000e+00 0.000000e+00
-7.690000e+00 0.000000e+00
-7.680000e+00 0.000000e+00
-7.670000e+00 0.000000e+00
-7.660000e+00 0.000000e+00
-7.650000e+00 0.000000e+00
-7.640000e+00 0.000000e+00
-7.630000e+00 0.000000e+00
-7.620000e+00 0.000000e+00
-7.610000e+00 0.000000e+00
-7.600000e+00 0.000000e+00
-7.590000e+00 0.000000e+00
-7.580000e+00 0.000000e+00
-7.570000e+00 0.000000e+00
-7.560000e+00 0.000000e+00
-7.550000e+00 0.000000e+00
-7.540000e+00 0.000000e+00
-7.530000e+00 0.000000e+00
-7.520000e+00 0.000000e+00
-7.510000e+00 0.000000e+00
-7.500000e+00 0.000000e+00
-7.490000e+00 0.000000e+00
-7.480000e+00 0.000000e+00
-7.470000e+00 0.000000e+00
-7.460000e+00 0.000000e+00
-7.450000e+00 0.000000e+00
-7.440000e+00 0.000000e+00
-7.430000e+00 0.000000e+00
-7.420000e+00 0.000000e+00
-7.410000e+00 0.000000e+00
-7.400000e+00 0.000000e+00
-7.390000e+00 0.000000e+00
-7.380000e+00 0.000000e+00
-7.370000e+00 0.000000e+00
-7.360000e+00 0.000000e+00
-7.350000e+00 0.000000e+00
-7.340000e+00 0.000000e+00
-7.330000e+00 0.000000e+00
-7.320000e+00 0.000000e+00
-7.310000e+00 0.000000e+00
-7.300000e+00 0.000000e+00
-7.290000e+00 0.000000e+00
-7.280000e+00 0.000000e+00
-7.270000e+00 0.000000e+00
-7.260000e+00 0.000000e+00
-7.250000e+00 0.000000e+00
-7.240000e+00 0.000000e+00
-7.230000e+00 0.000000e+00
-7.220000e+00 0.000000e+00
-7.210000e+00 0.000000e+00
-7.200000e+00 0.000000e+00
-7.190000e+00 0.000000e+00
-7.180000e+00 0.000000e+00
-7.170000e+00 0.000000e+00
-7.160000e+00 0.000000e+00
-7.150000e+00 0.000000e+00
-7.140000e+00 0.000000e+00
-7.130000e+00 0.000000e+00
-7.120000e+00 0.000000e+00
-7.110000e+00 0.000000e+00
-7.100000e+00 0.000000e+00
-7.090000e+00 0.000000e+00
-7.080000e+00 0.000000e+00
-7.070000e+00 0.000000e+00
-7.060000e+00 0.000000e+00
-7.050000e+00 0.000000e+00
-7.040000e+00 0.000000e+00
-7.030000e+00 0.000000e+00
-7.020000e+00 0.000000e+00
-7.010000e+00 0.000000e+00
-7.000000e+00 0.000000e+00
-6.990000e+00 0.000000e+00
-6.980000e+00 0.000000e+00
-6.970000e+00 0.000000e+00
-6.960000e+00 0.000000e+00
-6.950000e+00 0.000000e+00
-6.940000e+00 0.000000e+00
-6.930000e+00 0.000000e+00
-6.920000e+00 0.000000e+00
-6.910000e+00 0.000000e+00
-6.900000e+00 0.000000e+00
-6.890000e+00 0.000000e+00
-6.880000e+00 0.000000e+00
-6.870000e+00 0.000000e+00
-6.860000e+00 0.000000e+00
-6.850000e+00 0.000000e+00
-6.840000e+00 0.000000e+00
-6.830000e+00 0.000000e+00
-6.820000e+00 0.000000e+00
-6.810000e+00 0.000000e+00
-6.800000e+00 0.000000e+00
-6.790000e+00 0.000000e+00
-6.780000e+00 0.000000e+00
-6.770000e+00 0.000000e+00
-6.760000e+00 0.000000e+00
-6.750000e+00 0.000000e+00
-6.740000e+00 0.000000e+00
-6.730000e+00 0.000000e+00
-6.720000e+00 0.000000e+00
-6.710000e+00 0.000000e+00
-6.700000e+00 0.000000e+00
-6.690000e+00 0.000000e+00
-6.680000e+00 0.000000e+00
-6.670000e+00 0.000000e+00
-6.660000e+00 0.000000e+00
-6.650000e+00 0.000000e+00
-6.640000e+00 0.000000e+00
-6.630000e+00 0.000000e+00
-6.620000e+00 0.000000e+00
-6.610000e+00 0.000000e+00
-6.600000e+00 0.000000e+00
-6.590000e+00 0.000000e+00
-6.580000e+00 0.000000e+00
-6.570000e+00 0.000000e+00
-6.560000e+00 0.000000e+00
-6.550000e+00 0.000000e+00
-6.540000e+00 0.000000e+00
-6.530000e+00 0.000000e+00
-6.520000e+00 0.000000e+00
-6.510000e+00 0.000000e+00
-6.500000e+00 0.000000e+00
-6.490000e+00 0.000000e+00
-6.480000e+00 0.000000e+00
-6.470000e+00 0.000000e+00
-6.460000e+00 0.000000e+00
-6.450000e+00 0.000000e+00
-6.440000e+00 0.000000e+00
-6.430000e+00 0.000000e+00
-6.420000e+00 0.000000e+00
-6.410000e+00 0.000000e+00
-6.400000e+00 0.000000e+00
-6.390000e+00 0.000000e+00
-6.380000e+00 0.000000e+00
-6.370000e+00 0.000000e+00
-6.360000e+00 0.000000e+00
-6.350000e+00 0.000000e+00
-6.340000e+00 0.000000e+00
-6.330000e+00 0.000000e+00
-6.320000e+00 0.000000e+00
-6.310000e+00 0.000000e+00
-6.300000e+00 0.000000e+00
-6.290000e+00 0.000000e+00
-6.280000e+00 0.000000e+00
-6.270000e+00 0.000000e+00
-6.260000e+00 0.000000e+00
-6.250000e+00 2.802597e-45
-6.240000e+00 2.802597e-45
-6.230000e+00 1.401298e-45
-6.220000e+00 1.401298e-45
-6.210000e+00 2.802597e-45
-6.200000e+00 2.802597e-45
-6.190000e+00 4.203895e-45
-6.180000e+00 4.203895e-45
-6.170000e+00 2.802597e-45
-6.160000e+00 4.203895e-45
-6.150000e+00 4.203895e-45
-6.140000e+00 -4.203895e-45
-6.130000e+00 -7.006492e-45
-6.120000e+00 -8.407791e-45
-6.110000e+00 -7.006492e-45
-6.100000e+00 -9.809089e-45
-6.090000e+00 -1.681558e-44
-6.080000e+00 -1.821688e-44
-6.070000e+00 -1.961818e-44
-6.060000e+00 -2.242078e-44
-6.050000e+00 -2.382207e-44
-6.040000e+00 -2.382207e-44
-6.030000e+00 -2.802597e-44
-6.020000e+00 -2.802597e-44
-6.010000e+00 -3.082857e-44
-6.000000e+00 -3.222986e-44
-5.990000e+00 -3.643376e-44
-5.980000e+00 -2.942727e-44
-5.970000e+00 -2.662467e-44
-5.960000e+00 -1.821688e-44
-5.950000e+00 -9.809089e-45
-5.940000e+00 1.401298e-45
-5.930000e+00 2.522337e-44
-5.920000e+00 4.624285e-44
-5.910000e+00 7.426882e-44
-5.900000e+00 1.036961e-43
-5.890000e+00 1.317221e-43
-5.880000e+00 1.723597e-43
-5.870000e+00 2.059909e-43
-5.860000e+00 2.480298e-43
-5.850000e+00 2.858649e-43
-5.840000e+00 3.279038e-43
-5.830000e+00 3.825545e-43
-5.820000e+00 4.175869e-43
-5.810000e+00 4.666324e-43
-5.800000e+00 4.988623e-43
-5.790000e+00 5.324934e-43
-5.780000e+00 5.479077e-43
-5.770000e+00 5.535129e-43
-5.760000e+00 5.479077e-43
-5.750000e+00 5.254869e-43
-5.740000e+00 4.708363e-43
-5.730000e+00 3.993701e-43
-5.720000e+00 2.816610e-43
-5.710000e+00 1.317221e-43
-5.700000e+00 -5.465064e-44
-5.690000e+00 -2.816610e-43
-5.680000e+00 -5.507103e-43
-5.670000e+00 -8.688050e-43
-5.660000e+00 -1.237347e-42
-5.650000e+00 -1.631111e-42
-5.640000e+00 -2.068317e-42
-5.630000e+00 -2.541955e-42
-5.620000e+00 -3.033811e-42
-5.610000e+00 -3.538279e-42
-5.600000e+00 -4.035740e-42
-5.590000e+00 -4.516385e-42
-5.580000e+00 -4.945182e-42
-5.570000e+00 -5.303915e-42
-5.560000e+00 -5.579970e-42
-5.550000e+00 -5.717298e-42
-5.540000e+00 -5.707489e-42
-5.530000e+00 -5.498695e-42
-5.520000e+00 -5.088115e-42
-5.510000e+00 -4.384663e-42
-5.500000e+00 -3.424773e-42
-5.490000e+00 -2.136980e-42
-5.480000e+00 -5.366973e-43
-5.470000e+00 1.423719e-42
-5.460000e+00 3.740066e-42
-5.450000e+00 6.388520e-42
-5.440000e+00 9.363476e-42
-5.430000e+00 1.263411e-41
-5.420000e+00 1.612895e-41
-5.410000e+00 1.978353e-41
-5.400000e+00 2.351239e-41
-5.390000e+00 2.718939e-41
-5.380000e+00 3.068423e-41
-5.370000e+00 3.383435e-41
-5.360000e+00 3.648701e-41
-5.350000e+00 3.844322e-41
-5.340000e+00 3.948158e-41
-5.330000e+00 3.941152e-41
-5.320000e+00 3.800462e-41
-5.310000e+00 3.508151e-41
-5.300000e+00 3.042499e-41
-5.290000e+00 2.388793e-41
-5.280000e+00 1.531339e-41
-5.270000e+00 4.631291e-42
-5.260000e+00 -8.197596e-42
-5.250000e+00 -2.312983e-41
-5.240000e+00 -4.003510e-41
-5.230000e+00 -5.870320e-41
-5.220000e+00 -7.882024e-41
-5.210000e+00 -9.997003e-41
-5.200000e+00 -1.216145e-40
-5.190000e+00 -1.430768e-40
-5.180000e+00 -1.636142e-40
-5.170000e+00 -1.823285e-40
-5.160000e+00 -1.982781e-40
-5.150000e+00 -2.104008e-40
-5.140000e+00 -2.176231e-40
-5.130000e+00 -2.188029e-40
-5.120000e+00 -2.128390e-40
-5.110000e+00 -1.987125e-40
-5.100000e+00 -1.754538e-40
-5.090000e+00 -1.423047e-40
-5.080000e+00 -9.867944e-41
-5.070000e+00 -4.428243e-41
-5.060000e+00 2.084291e-41
-5.050000e+00 9.627621e-41
-5.040000e+00 1.811795e-40
-5.030000e+00 2.741879e-40
-5.020000e+00 3.734657e-40
-5.010000e+00 4.765788e-40
-5.000000e+00 5.806308e-40
-4.990000e+00 6.821353e-40
-4.980000e+00 7.771111e-40
-4.970000e+00 8.611848e-40
-4.960000e+00 9.296242e-40
-4.950000e+00 9.774701e-40
-4.940000e+00 9.996583e-40
-4.930000e+00 9.912561e-40
-4.920000e+00 9.475636e-40
-4.910000e+00 8.644386e-40
-4.900000e+00 7.384352e-40
-4.890000e+00 5.671475e-40
-4.880000e+00 3.493689e-40
-4.870000e+00 8.542596e-41
-4.860000e+00 -2.226383e-40
-4.850000e+00 -5.708694e-40
-4.840000e+00 -9.531394e-40
-4.830000e+00 -1.361161e-39
-4.820000e+00 -1.784325e-39
-4.810000e+00 -2.209801e-39
-4.800000e+00 -2.622581e-39
-4.790000e+00 -3.005775e-39
-4.780000e+00 -3.340902e-39
-4.770000e+00 -3.608300e-39
-4.760000e+00 -3.787748e-39
-4.750000e+00 -3.859081e-39
-4.740000e+00 -3.803008e-39
-4.730000e+00 -3.601973e-39
-4.720000e+00 -3.241095e-39
-4.710000e+00 -2.709230e-39
-4.700000e+00 -1.999897e-39
-4.690000e+00 -1.112355e-39
-4.680000e+00 -5.255430e-41
-4.670000e+00 1.166016e-39
-4.660000e+00 2.521712e-39
-4.650000e+00 3.984134e-39
-4.640000e+00 5.514011e-39
-4.630000e+00 7.063252e-39
-4.620000e+00 8.575434e-39
-4.610000e+00 9.986618e-39
-4.600000e+00 1.122676e-38
-4.590000e+00 1.222134e-38
-4.580000e+00 1.289376e-38
-4.570000e+00 1.316793e-38
-4.560000e+00 1.297136e-38
-4.550000e+00 1.223879e-38
-4.540000e+00 1.091582e-38
-4.530000e+00 8.962947e-39
-4.520000e+00 6.359562e-39
-4.510000e+00 3.107945e-39
-4.500000e+00 -7.631373e-40
-4.490000e+00 -5.195194e-39
-4.480000e+00 -1.009744e-38
-4.470000e+00 -1.534519e-38
-4.460000e+00 -2.077921e-38
-4.450000e+00 -2.620650e-38
-4.440000e+00 -3.140259e-38
-4.430000e+00 -3.611527e-38
-4.420000e+00 -4.007047e-38
-4.410000e+00 -4.297957e-38
-4.400000e+00 -4.454909e-38
-4.390000e+00 -4.449153e-38
-4.380000e+00 -4.253853e-38
-4.370000e+00 -3.845492e-38
-4.360000e+00 -3.205416e-38
-4.350000e+00 -2.321436e-38
-4.340000e+00 -1.189417e-38
-4.330000e+00 1.851559e-39
-4.320000e+00 1.785761e-38
-4.310000e+00 3.583618e-38
-4.300000e+00 5.536758e-38
-4.290000e+00 7.589496e-38
-4.280000e+00 9.672321e-38
-4.270000e+00 1.170240e-37
-4.260000e+00 1.358466e-37
-4.250000e+00 1.521357e-37
-4.240000e+00 1.647564e-37
-4.230000e+00 1.725280e-37
-4.220000e+00 1.742631e-37
-4.210000e+00 1.688168e-37
-4.200000e+00 1.551393e-37
-4.190000e+00 1.323374e-37
-4.180000e+00 9.973703e-38
-4.170000e+00 5.695023e-38
-4.160000e+00 3.940765e-39
-4.150000e+00 -5.891273e-38
-4.140000e+00 -1.307591e-37
-4.130000e+00 -2.102265e-37
-4.120000e+00 -2.953870e-37
-4.110000e+00 -3.837365e-37
-4.100000e+00 -4.721968e-37
-4.090000e+00 -5.571367e-37
-4.080000e+00 -6.344244e-37
-4.070000e+00 -6.995053e-37
-4.060000e+00 -7.475127e-37
-4.050000e+00 -7.734082e-37
-4.040000e+00 -7.721530e-37
-4.030000e+00 -7.389138e-37
-4.020000e+00 -6.692894e-37
-4.010000e+00 -5.595653e-37
-4.000000e+00 -4.069813e-37
-3.990000e+00 -2.100087e-37
-3.980000e+00 3.137553e-38
-3.970000e+00 3.154195e-37
-3.960000e+00 6.383618e-37
-3.950000e+00 9.942296e-37
-3.940000e+00 1.374688e-36
-3.930000e+00 1.768963e-36
-3.920000e+00 2.163838e-36
-3.910000e+00 2.543765e-36
-3.900000e+00 2.891060e-36
-3.890000e+00 3.186233e-36
-3.880000e+00 3.408451e-36
-3.870000e+00 3.536121e-36
-3.860000e+00 3.547596e-36
-3.850000e+00 3.422031e-36
-3.840000e+00 3.140320e-36
-3.830000e+00 2.686164e-36
-3.820000e+00 2.047167e-36
-3.810000e+00 1.215998e-36
-3.800000e+00 1.915474e-37
-3.790000e+00 -1.019985e-36
-3.780000e+00 -2.404056e-36
-3.770000e+00 -3.936949e-36
-3.760000e+00 -5.585134e-36
-3.750000e+00 -7.304872e-36
-3.740000e+00 -9.042233e-36
-3.730000e+00 -1.073338e-35
-3.720000e+00 -1.230546e-35
-3.710000e+00 -1.367782e-35
-3.700000e+00 -1.476379e-35
-3.690000e+00 -1.547316e-35
-3.680000e+00 -1.571488e-35
-3.670000e+00 -1.540050e-35
-3.660000e+00 -1.444807e-35
-3.650000e+00 -1.278624e-35
-3.640000e+00 -1.035895e-35
-3.630000e+00 -7.129962e-36
-3.620000e+00 -3.087645e-36
-3.610000e+00 1.750513e-36
-3.600000e+00 7.333675e-36
-3.590000e+00 1.357428e-35
-3.580000e+00 2.034502e-35
-3.570000e+00 2.747741e-35
-3.560000e+00 3.476135e-35
-3.550000e+00 4.194606e-35
-3.540000e+00 4.874349e-35
-3.530000e+00 5.483282e-35
-3.520000e+00 5.986730e-35
-3.510000e+00 6.348376e-35
-3.500000e+00 6.531287e-35
-3.490000e+00 6.499319e-35
-3.480000e+00 6.218572e-35
-3.470000e+00 5.659056e-35
-3.460000e+00 4.796486e-35
-3.450000e+00 3.614132e-35
-3.440000e+00 2.104675e-35
-3.430000e+00 2.720252e-36
-3.420000e+00 -1.867014e-35
-3.410000e+00 -4.281303e-35
-3.400000e+00 -6.924225e-35
-3.390000e+00 -9.732942e-35
-3.380000e+00 -1.262825e-34
-3.370000e+00 -1.551480e-34
-3.360000e+00 -1.828240e-34
-3.350000e+00 -2.080752e-34
-3.340000e+00 -2.295606e-34
-3.330000e+00 -2.458671e-34
-3.320000e+00 -2.555520e-34
-3.310000e+00 -2.571922e-34
-3.300000e+00 -2.494433e-34
-3.290000e+00 -2.311024e-34
-3.280000e+00 -2.011763e-34
-3.270000e+00 -1.589545e-34
-3.260000e+00 -1.040792e-34
-3.250000e+00 -3.661761e-35
-3.240000e+00 4.287541e-35
-3.230000e+00 1.332976e-34
-3.220000e+00 2.329583e-34
-3.210000e+00 3.395443e-34
-3.200000e+00 4.501137e-34
-3.190000e+00 5.611067e-34
-3.180000e+00 6.683803e-34
-3.170000e+00 7.672778e-34
-3.160000e+00 8.527240e-34
-3.150000e+00 9.193526e-34
-3.140000e+00 9.616644e-34
-3.130000e+00 9.742130e-34
-3.120000e+00 9.518311e-34
-3.110000e+00 8.898603e-34
-3.100000e+00 7.844143e-34
-3.090000e+00 6.326514e-34
-3.080000e+00 4.330479e-34
-3.070000e+00 1.856615e-34
-3.060000e+00 -1.076180e-34
-3.050000e+00 -4.428526e-34
-3.040000e+00 -8.138847e-34
-3.030000e+00 -1.212217e-33
-3.020000e+00 -1.626974e-33
-3.010000e+00 -2.044938e-33
-3.000000e+00 -2.450683e-33
-2.990000e+00 -2.826805e-33
-2.980000e+00 -3.154322e-33
-2.970000e+00 -3.413066e-33
-2.960000e+00 -3.582352e-33
-2.950000e+00 -3.641616e-33
-2.940000e+00 -3.571266e-33
-2.930000e+00 -3.353547e-33
-2.920000e+00 -2.973546e-33
-2.910000e+00 -2.420146e-33
-2.900000e+00 -1.687109e-33
-2.890000e+00 -7.740388e-34
-2.880000e+00 3.126815e-34
-2.870000e+00 1.559068e-33
-2.860000e+00 2.942841e-33
-2.850000e+00 4.433021e-33
-2.840000e+00 5.989765e-33
-2.830000e+00 7.564325e-33
-2.820000e+00 9.099821e-33
-2.810000e+00 1.053171e-32
-2.800000e+00 1.178940e-32
-2.790000e+00 1.279780e-32
-2.780000e+00 1.347942e-32
-2.770000e+00 1.375706e-32
-2.760000e+00 1.355668e-32
-2.750000e+00 1.281065e-32
-2.740000e+00 1.146140e-32
-2.730000e+00 9.465074e-33
-2.720000e+00 6.795312e-33
-2.710000e+00 3.447002e-33
-2.700000e+00 -5.602603e-34
-2.690000e+00 -5.179122e-33
-2.680000e+00 -1.033192e-32
-2.670000e+00 -1.590892e-32
-2.660000e+00 -2.176736e-32
-2.650000e+00 -2.773197e-32
-2.640000e+00 -3.359622e-32
-2.630000e+00 -3.912543e-32
-2.620000e+00 -4.406105e-32
-2.610000e+00 -4.812689e-32
-2.600000e+00 -5.103614e-32
-2.590000e+00 -5.250097e-32
-2.580000e+00 -5.224293e-32
-2.570000e+00 -5.000442e-32
-2.560000e+00 -4.556183e-32
-2.550000e+00 -3.873867e-32
-2.540000e+00 -2.941949e-32
-2.530000e+00 -1.756319e-32
-2.520000e+00 -3.215828e-33
-2.510000e+00 1.347757e-32
-2.500000e+00 3.226373e-32
-2.490000e+00 5.277437e-32
-2.480000e+00 7.452128e-32
-2.470000e+00 9.689789e-32
-2.460000e+00 1.191825e-31
-2.450000e+00 1.405472e-31
-2.440000e+00 1.600738e-31
-2.430000e+00 1.767731e-31
-2.420000e+00 1.896090e-31
-2.410000e+00 1.975315e-31
-2.400000e+00 1.995123e-31
-2.390000e+00 1.945839e-31
-2.380000e+00 1.818867e-31
-2.370000e+00 1.607126e-31
-2.360000e+00 1.305559e-31
-2.350000e+00 9.115997e-32
-2.340000e+00 4.256417e-32
-2.330000e+00 -1.485601e-32
-2.320000e+00 -8.035128e-32
-2.310000e+00 -1.527721e-31
-2.300000e+00 -2.305515e-31
-2.290000e+00 -3.117020e-31
-2.280000e+00 -3.938215e-31
-2.270000e+00 -4.741267e-31
-2.260000e+00 -5.494925e-31
-2.250000e+00 -6.165151e-31
-2.240000e+00 -6.715981e-31
-2.230000e+00 -7.110470e-31
-2.220000e+00 -7.311935e-31
-2.210000e+00 -7.285255e-31
-2.200000e+00 -6.998377e-31
-2.190000e+00 -6.423897e-31
-2.180000e+00 -5.540649e-31
-2.170000e+00 -4.335448e-31
-2.160000e+00 -2.804546e-31
-2.150000e+00 -9.552327e-32
-2.140000e+00 1.192944e-31
-2.130000e+00 3.607100e-31
-2.120000e+00 6.240378e-31
-2.110000e+00 9.031583e-31
-2.100000e+00 1.190533e-30
-2.090000e+00 1.477278e-30
-2.080000e+00 1.753294e-30
-2.070000e+00 2.007436e-30
-2.060000e+00 2.227783e-30
-2.050000e+00 2.401937e-30
-2.040000e+00 2.517399e-30
-2.030000e+00 2.561989e-30
-2.020000e+00 2.524336e-30
-2.010000e+00 2.394358e-30
-2.000000e+00 2.163822e-30
-1.990000e+00 1.826860e-30
-1.980000e+00 1.380530e-30
-1.970000e+00 8.252808e-31
-1.960000e+00 1.654179e-31
-1.950000e+00 -5.905204e-31
-1.940000e+00 -1.429499e-30
-1.930000e+00 -2.333841e-30
-1.920000e+00 -3.281195e-30
-1.910000e+00 -4.244708e-30
-1.900000e+00 -5.193339e-30
-1.890000e+00 -6.092407e-30
-1.880000e+00 -6.904296e-30
-1.870000e+00 -7.589328e-30
-1.860000e+00 -8.106980e-30
-1.850000e+00 -8.417040e-30
-1.840000e+00 -8.481185e-30
-1.830000e+00 -8.264446e-30
-1.820000e+00 -7.736901e-30
-1.810000e+00 -6.875413e-30
-1.800000e+00 -5.665311e-30
-1.790000e+00 -4.101992e-30
-1.780000e+00 -2.192377e-30
-1.770000e+00 4.372618e-32
-1.760000e+00 2.572725e-30
-1.750000e+00 5.346539e-30
-1.740000e+00 8.302394e-30
-1.730000e+00 1.136306e-29
-1.720000e+00 1.443765e-29
-1.710000e+00 1.742300e-29
-1.700000e+00 2.020562e-29
-1.690000e+00 2.266419e-29
-1.680000e+00 2.467282e-29
-1.670000e+00 2.610477e-29
-1.660000e+00 2.683668e-29
-1.650000e+00 2.675314e-29
-1.640000e+00 2.575185e-29
-1.630000e+00 2.374873e-29
-1.620000e+00 2.068298e-29
-1.610000e+00 1.652235e-29
-1.600000e+00 1.126773e-29
-1.590000e+00 4.957387e-30
-1.580000e+00 -2.329625e-30
-1.570000e+00 -1.047096e-29
-1.560000e+00 -1.929975e-29
-1.550000e+00 -2.860454e-29
-1.540000e+00 -3.813104e-29
-1.530000e+00 -4.758527e-29
-1.520000e+00 -5.663845e-29
-1.510000e+00 -6.493426e-29
-1.500000e+00 -7.209659e-29
-1.490000e+00 -7.774094e-29
-1.480000e+00 -8.148540e-29
-1.470000e+00 -8.296453e-29
-1.460000e+00 -8.184331e-29
-1.450000e+00 -7.783235e-29
-1.440000e+00 -7.070378e-29
-1.430000e+00 -6.030550e-29
-1.420000e+00 -4.657671e-29
-1.410000e+00 -2.956050e-29
-1.400000e+00 -9.415673e-30
-1.390000e+00 1.357526e-29
-1.380000e+00 3.899914e-29
-1.370000e+00 6.631077e-29
-1.360000e+00 9.483516e-29
-1.350000e+00 1.237737e-28
-1.340000e+00 1.522161e-28
-1.330000e+00 1.791574e-28
-1.320000e+00 2.035190e-28
-1.310000e+00 2.241764e-28
-1.300000e+00 2.399908e-28
-1.290000e+00 2.498446e-28
-1.280000e+00 2.526823e-28
-1.270000e+00 2.475506e-28
-1.260000e+00 2.336437e-28
-1.250000e+00 2.103467e-28
-1.240000e+00 1.772790e-28
-1.230000e+00 1.343345e-28
-1.220000e+00 8.171683e-29
-1.210000e+00 1.997047e-29
-1.200000e+00 -4.999771e-29
-1.190000e+00 -1.269056e-28
-1.180000e+00 -2.090922e-28
-1.170000e+00 -2.945297e-28
-1.160000e+00 -3.808441e-28
-1.150000e+00 -4.653530e-28
-1.140000e+00 -5.451192e-28
-1.130000e+00 -6.170083e-28
-1.120000e+00 -6.777787e-28
-1.110000e+00 -7.241620e-28
-1.100000e+00 -7.529727e-28
-1.090000e+00 -7.612179e-28
-1.080000e+00 -7.462132e-28
-1.070000e+00 -7.057064e-28
-1.060000e+00 -6.379952e-28
-1.050000e+00 -5.420482e-28
-1.040000e+00 -4.176075e-28
-1.030000e+00 -2.652882e-28
-1.020000e+00 -8.665621e-29
-1.010000e+00 1.157181e-28
-1.000000e+00 3.382274e-28
-9.900002e-01 5.762240e-28
-9.800000e-01 8.240579e-28
-9.700003e-01 1.075135e-27
-9.600000e-01 1.322026e-27
-9.500003e-01 1.556605e-27
-9.400001e-01 1.770229e-27
-9.300003e-01 1.953948e-27
-9.200001e-01 2.098753e-27
-9.100003e-01 2.195844e-27
-9.000001e-01 2.236927e-27
-8.900003e-01 2.214535e-27
-8.800001e-01 2.122316e-27
-8.700004e-01 1.955380e-27
-8.600001e-01 1.710584e-27
-8.500004e-01 1.386811e-27
-8.400002e-01 9.852256e-28
-8.299999e-01 5.094689e-28
-8.200002e-01 -3.419893e-29
-8.099999e-01 -6.368093e-28
-8.000002e-01 -1.286682e-27
-7.900000e-01 -1.969504e-27
-7.800002e-01 -2.668492e-27
-7.700000e-01 -3.364642e-27
-7.600002e-01 -4.037072e-27
-7.500000e-01 -4.663468e-27
-7.400002e-01 -5.220602e-27
-7.300000e-01 -5.684919e-27
-7.200003e-01 -6.033225e-27
-7.100000e-01 -6.243378e-27
-7.000003e-01 -6.295074e-27
-6.900001e-01 -6.170598e-27
-6.800003e-01 -5.855613e-27
-6.700001e-01 -5.339873e-27
-6.600003e-01 -4.617951e-27
-6.500001e-01 -3.689816e-27
-6.400003e-01 -2.561368e-27
-6.300001e-01 -1.244805e-27
-6.200004e-01 2.411282e-28
-6.100001e-01 1.871080e-27
-6.000004e-01 3.613184e-27
-5.900002e-01 5.429436e-27
-5.800004e-01 7.276129e-27
-5.700002e-01 9.104647e-27
-5.599999e-01 1.086237e-26
-5.500002e-01 1.249375e-26
-5.400000e-01 1.394172e-26
-5.300002e-01 1.514903e-26
-5.200000e-01 1.605988e-26
-5.100002e-01 1.662160e-26
-5.000000e-01 1.678633e-26
-4.900002e-01 1.651275e-26
-4.800000e-01 1.576779e-26
-4.700003e-01 1.452818e-26
-4.600000e-01 1.278195e-26
-4.500003e-01 1.052958e-26
-4.400001e-01 7.785147e-27
-4.300003e-01 4.576937e-27
-4.200001e-01 9.478893e-28
-4.100003e-01 -3.044326e-27
-4.000001e-01 -7.327738e-27
-3.900003e-01 -1.181677e-26
-3.800001e-01 -1.641337e-26
-3.700004e-01 -2.100864e-26
-3.600001e-01 -2.548471e-26
-3.500004e-01 -2.971705e-26
-3.400002e-01 -3.357719e-26
-3.300004e-01 -3.693547e-26
-3.200002e-01 -3.966440e-26
-3.099999e-01 -4.164167e-26
-3.000002e-01 -4.275375e-26
-2.900000e-01 -4.289905e-26
-2.800002e-01 -4.199147e-26
-2.700000e-01 -3.996333e-26
-2.600002e-01 -3.676824e-26
-2.500000e-01 -3.238392e-26
-2.400002e-01 -2.681412e-26
-2.300000e-01 -2.009058e-26
-2.200003e-01 -1.227411e-26
-2.100000e-01 -3.455290e-27
-2.000003e-01 6.245381e-27
-1.900001e-01 1.667812e-26
-1.800003e-01 2.766493e-26
-1.700001e-01 3.900143e-26
-1.600003e-01 5.045928e-26
-1.500001e-01 6.178901e-26
-1.400003e-01 7.272374e-26
-1.300001e-01 8.298322e-26
-1.200004e-01 9.227821e-26
-1.100001e-01 1.003155e-25
-1.000004e-01 1.068032e-25
-9.000015e-02 1.114563e-25
-8.000040e-02 1.140025e-25
-7.000017e-02 1.141885e-25
-5.999994e-02 1.117855e-25
-5.000019e-02 1.065965e-25
-3.999996e-02 9.846180e-26
-3.000021e-02 8.726528e-26
-1.999998e-02 7.294134e-26
-1.000023e-02 5.548022e-26
0.000000e+00 3.493421e-26
1.000023e-02 1.142324e-26
1.999950e-02 -1.486008e-26
2.999973e-02 -4.364578e-26
3.999996e-02 -7.458245e-26
5.000019e-02 -1.072341e-25
5.999947e-02 -1.410784e-25
6.999969e-02 -1.755053e-25
7.999992e-02 -2.098183e-25
9.000015e-02 -2.432367e-25
9.999943e-02 -2.749004e-25
1.099997e-01 -3.038765e-25
1.199999e-01 -3.291701e-25
1.300001e-01 -3.497363e-25
1.399994e-01 -3.644973e-25
1.499996e-01 -3.723606e-25
1.599998e-01 -3.722436e-25
1.700001e-01 -3.631019e-25
1.799994e-01 -3.439565e-25
1.899996e-01 -3.139325e-25
1.999998e-01 -2.722943e-25
2.100000e-01 -2.184872e-25
2.200003e-01 -1.521780e-25
2.299995e-01 -7.330112e-26
2.399998e-01 1.789951e-26
2.500000e-01 1.208272e-25
2.600002e-01 2.344939e-25
2.699995e-01 3.574842e-25
2.799997e-01 4.879262e-25
2.900000e-01 6.234730e-25
3.000002e-01 7.612900e-25
3.099995e-01 8.980615e-25
3.199997e-01 1.030003e-24
3.299999e-01 1.152898e-24
3.400002e-01 1.262148e-24
3.499994e-01 1.352843e-24
3.599997e-01 1.419860e-24
3.699999e-01 1.457962e-24
3.800001e-01 1.461948e-24
3.899994e-01 1.426791e-24
3.999996e-01 1.347822e-24
4.099998e-01 1.220916e-24
4.200001e-01 1.042686e-24
4.299994e-01 8.107039e-25
4.399996e-01 5.237041e-25
4.499998e-01 1.817995e-25
4.600000e-01 -2.133154e-25
4.700003e-01 -6.581860e-25
4.799995e-01 -1.147433e-24
4.899998e-01 -1.673628e-24
5.000000e-01 -2.227210e-24
5.100002e-01 -2.796457e-24
5.199995e-01 -3.367511e-24
5.299997e-01 -3.924473e-24
5.400000e-01 -4.449576e-24
5.500002e-01 -4.923434e-24
5.599995e-01 -5.325378e-24
5.699997e-01 -5.633869e-24
5.799999e-01 -5.827011e-24
5.900002e-01 -5.883139e-24
5.999994e-01 -5.781472e-24
6.099997e-01 -5.502855e-24
6.199999e-01 -5.030530e-24
6.300001e-01 -4.350960e-24
6.399994e-01 -3.454669e-24
6.499996e-01 -2.337093e-24
6.599998e-01 -9.993532e-25
6.700001e-01 5.509690e-25
6.799994e-01 2.299174e-24
6.899996e-01 4.222903e-24
6.999998e-01 6.291753e-24
7.100000e-01 8.467049e-24
7.200003e-01 1.070184e-23
7.299995e-01 1.294117e-23
7.399998e-01 1.512253e-23
7.500000e-01 1.717669e-23
7.600002e-01 1.902874e-23
7.699995e-01 2.059952e-23
7.799997e-01 2.180729e-23
7.900000e-01 2.256972e-23
8.000002e-01 2.280613e-23
8.099995e-01 2.244006e-23
8.199997e-01 2.140189e-23
8.299999e-01 1.963176e-23
8.400002e-01 1.708252e-23
8.499994e-01 1.372262e-23
8.599997e-01 9.539114e-24
8.699999e-01 4.540323e-24
8.800001e-01 -1.241646e-24
8.899994e-01 -7.748824e-24
8.999996e-01 -1.489565e-23
9.099998e-01 -2.256791e-23
9.200001e-01 -3.062229e-23
9.299994e-01 -3.888675e-23
9.399996e-01 -4.716160e-23
9.499998e-01 -5.522161e-23
9.600000e-01 -6.281916e-23
9.700003e-01 -6.968807e-23
9.799995e-01 -7.554895e-23
9.899998e-01 -8.011472e-23
1.000000e+00 -8.309817e-23
1.010000e+00 -8.421935e-23
1.020000e+00 -8.321409e-23
1.030000e+00 -7.984370e-23
1.040000e+00 -7.390367e-23
1.050000e+00 -6.523397e-23
1.059999e+00 -5.372881e-23
1.070000e+00 -3.934555e-23
1.080000e+00 -2.211392e-23
1.090000e+00 -2.143538e-24
1.099999e+00 2.036926e-23
1.110000e+00 4.513642e-23
1.120000e+00 7.177505e-23
1.130000e+00 9.980645e-23
1.139999e+00 1.286574e-22
1.150000e+00 1.576646e-22
1.160000e+00 1.860813e-22
1.170000e+00 2.130879e-22
1.179999e+00 2.378044e-22
1.190000e+00 2.593074e-22
1.200000e+00 2.766490e-22
1.210000e+00 2.888788e-22
1.220000e+00 2.950693e-22
1.230000e+00 2.943420e-22
1.240000e+00 2.858962e-22
1.250000e+00 2.690399e-22
1.260000e+00 2.432188e-22
1.270000e+00 2.080474e-22
1.280000e+00 1.633384e-22
1.290000e+00 1.091293e-22
1.300000e+00 4.570730e-23
1.309999e+00 -2.636952e-23
1.320000e+00 -1.062566e-22
1.330000e+00 -1.928122e-22
1.340000e+00 -2.845932e-22
1.349999e+00 -3.798586e-22
1.360000e+00 -4.765812e-22
1.370000e+00 -5.724676e-22
1.380000e+00 -6.649853e-22
1.389999e+00 -7.514037e-22
1.400000e+00 -8.288402e-22
1.410000e+00 -8.943154e-22
1.420000e+00 -9.448213e-22
1.429999e+00 -9.773908e-22
1.440000e+00 -9.891800e-22
1.450000e+00 -9.775513e-22
1.460000e+00 -9.401651e-22
1.469999e+00 -8.750669e-22
1.480000e+00 -7.807857e-22
1.490000e+00 -6.564142e-22
1.500000e+00 -5.017001e-22
1.510000e+00 -3.171198e-22
1.520000e+00 -1.039457e-22
1.530000e+00 1.356985e-22
1.540000e+00 3.988008e-22
1.550000e+00 6.814387e-22
1.559999e+00 9.787808e-22
1.570000e+00 1.285107e-21
1.580000e+00 1.593858e-21
1.590000e+00 1.897705e-21
1.599999e+00 2.188651e-21
1.610000e+00 2.458155e-21
1.620000e+00 2.697288e-21
1.630000e+00 2.896906e-21
1.639999e+00 3.047855e-21
1.650000e+00 3.141198e-21
1.660000e+00 3.168450e-21
1.670000e+00 3.121832e-21
1.679999e+00 2.994546e-21
1.690000e+00 2.781032e-21
1.700000e+00 2.477239e-21
1.710000e+00 2.080878e-21
1.719999e+00 1.591661e-21
1.730000e+00 1.011523e-21
1.740000e+00 3.447974e-22
1.750000e+00 -4.016348e-22
1.760000e+00 -1.218251e-21
1.770000e+00 -2.092839e-21
1.780000e+00 -3.010521e-21
1.790000e+00 -3.953829e-21
1.800000e+00 -4.902866e-21
1.809999e+00 -5.835533e-21
1.820000e+00 -6.727828e-21
1.830000e+00 -7.554239e-21
1.840000e+00 -8.288187e-21
1.849999e+00 -8.902562e-21
1.860000e+00 -9.370333e-21
1.870000e+00 -9.665156e-21
1.880000e+00 -9.762130e-21
1.889999e+00 -9.638490e-21
1.900000e+00 -9.274409e-21
1.910000e+00 -8.653725e-21
1.920000e+00 -7.764732e-21
1.929999e+00 -6.600887e-21
1.940000e+00 -5.161488e-21
1.950000e+00 -3.452290e-21
1.960000e+00 -1.486011e-21
1.969999e+00 7.172750e-22
1.980000e+00 3.129872e-21
1.990000e+00 5.716352e-21
2.000000e+00 8.433629e-21
2.010000e+00 1.123119e-20
2.020000e+00 1.405160e-20
2.030000e+00 1.683107e-20
2.040000e+00 1.950049e-20
2.050000e+00 2.198632e-20
2.059999e+00 2.421206e-20
2.070000e+00 2.609969e-20
2.080000e+00 2.757135e-20
2.090000e+00 2.855115e-20
2.099999e+00 2.896724e-20
2.110000e+00 2.875383e-20
2.120000e+00 2.785331e-20
2.130000e+00 2.621847e-20
2.139999e+00 2.381455e-20
2.150000e+00 2.062128e-20
2.160000e+00 1.663486e-20
2.170000e+00 1.186955e-20
2.179999e+00 6.359080e-21
2.190000e+00 1.578853e-22
2.200000e+00 -6.658308e-21
2.210000e+00 -1.399210e-20
2.219999e+00 -2.172463e-20
2.230000e+00 -2.971623e-20
2.240000e+00 -3.780777e-20
2.250000e+00 -4.582238e-20
2.260000e+00 -5.356798e-20
2.270000e+00 -6.084010e-20
2.280000e+00 -6.742571e-20
2.290000e+00 -7.310714e-20
2.300000e+00 -7.766678e-20
2.309999e+00 -8.089216e-20
2.320000e+00 -8.258132e-20
2.330000e+00 -8.254852e-20
2.340000e+00 -8.062996e-20
2.349999e+00 -7.668994e-20
2.360000e+00 -7.062633e-20
2.370000e+00 -6.237638e-20
2.380000e+00 -5.192155e-20
2.389999e+00 -3.929241e-20
2.400000e+00 -2.457237e-20
2.410000e+00 -7.900648e-21
2.420000e+00 1.052558e-20
2.429999e+00 3.045052e-20
2.440000e+00 5.156009e-20
2.450000e+00 7.348375e-20
2.460000e+00 9.579791e-20
2.469999e+00 1.180308e-19
2.480000e+00 1.396688e-19
2.490000e+00 1.601644e-19
2.500000e+00 1.789460e-19
2.510000e+00 1.954284e-19
2.520000e+00 2.090252e-19
2.530000e+00 2.191625e-19
2.540000e+00 2.252927e-19
2.550000e+00 2.269100e-19
2.559999e+00 2.235652e-19
2.570000e+00 2.148817e-19
2.580000e+00 2.005705e-19
2.590000e+00 1.804447e-19
2.599999e+00 1.544331e-19
2.610000e+00 1.225919e-19
2.620000e+00 8.511528e-20
2.630000e+00 4.234266e-20
2.639999e+00 -5.235286e-21
2.650000e+00 -5.697501e-20
2.660000e+00 -1.120811e-19
2.670000e+00 -1.696110e-19
2.679999e+00 -2.284835e-19
2.690000e+00 -2.874911e-19
2.700000e+00 -3.453170e-19
2.710000e+00 -4.005554e-19
2.719999e+00 -4.517342e-19
2.730000e+00 -4.973467e-19
2.740000e+00 -5.358780e-19
2.750000e+00 -5.658426e-19
2.760000e+00 -5.858194e-19
2.770000e+00 -5.944900e-19
2.780000e+00 -5.906763e-19
2.790000e+00 -5.733823e-19
2.800000e+00 -5.418289e-19
2.809999e+00 -4.954928e-19
2.820000e+00 -4.341398e-19
2.830000e+00 -3.578534e-19
2.840000e+00 -2.670620e-19
2.849999e+00 -1.625570e-19
2.860000e+00 -4.550654e-20
2.870000e+00 8.254019e-20
2.880000e+00 2.196552e-19
2.889999e+00 3.635433e-19
2.900000e+00 5.115646e-19
2.910000e+00 6.607643e-19
2.920000e+00 8.079137e-19
2.929999e+00 9.495607e-19
2.940000e+00 1.082089e-18
2.950000e+00 1.201787e-18
2.960000e+00 1.304924e-18
2.969999e+00 1.387830e-18
2.980000e+00 1.446991e-18
2.990000e+00 1.479132e-18
3.000000e+00 1.481316e-18
3.010000e+00 1.451039e-18
3.020000e+00 1.386317e-18
3.030000e+00 1.285778e-18
3.040000e+00 1.148738e-18