-8.000000e+00 0.000000e+00
-7.950000e+00 0.000000e+00
-7.900000e+00 0.000000e+00
-7.850000e+00 0.000000e+00
-7.800000e+00 0.000000e+00
-7.750000e+00 0.000000e+00
-7.700000e+00 0.000000e+00
-7.650000e+00 0.000000e+00
-7.600000e+00 0.000000e+00
-7.550000e+00 0.000000e+00
-7.500000e+00 0.000000e+00
-7.450000e+00 0.000000e+00
-7.400000e+00 0.000000e+00
-7.350000e+00 0.000000e+00
-7.300000e+00 0.000000e+00
-7.250000e+00 0.000000e+00
-7.200000e+00 0.000000e+00
-7.150000e+00 0.000000e+00
-7.100000e+00 0.000000e+00
-7.050000e+00 0.000000e+00
-7.000000e+00 0.000000e+00
-6.950000e+00 0.000000e+00
-6.900000e+00 0.000000e+00
-6.850000e+00 0.000000e+00
-6.800000e+00 0.000000e+00
-6.750000e+00 0.000000e+00
-6.700000e+00 0.000000e+00
-6.650000e+00 0.000000e+00
-6.600000e+00 0.000000e+00
-6.550000e+00 0.000000e+00
-6.500000e+00 0.000000e+00
-6.450000e+00 0.000000e+00
-6.400000e+00 0.000000e+00
-6.350000e+00 0.000000e+00
-6.300000e+00 0.000000e+00
-6.250000e+00 0.000000e+00
-6.200000e+00 0.000000e+00
-6.150000e+00 0.000000e+00
-6.100000e+00 0.000000e+00
-6.050000e+00 0.000000e+00
-6.000000e+00 0.000000e+00
-5.950000e+00 0.000000e+00
-5.900000e+00 0.000000e+00
-5.850000e+00 0.000000e+00
-5.800000e+00 0.000000e+00
-5.750000e+00 0.000000e+00
-5.700000e+00 0.000000e+00
-5.650000e+00 0.000000e+00
-5.600000e+00 0.000000e+00
-5.550000e+00 0.000000e+00
-5.500000e+00 0.000000e+00
-5.450000e+00 0.000000e+00
-5.400000e+00 0.000000e+00
-5.350000e+00 0.000000e+00
-5.300000e+00 0.000000e+00
-5.250000e+00 0.000000e+00
-5.200000e+00 0.000000e+00
-5.150000e+00 0.000000e+00
-5.100000e+00 0.000000e+00
-5.050000e+00 0.000000e+00
-5.000000e+00 0.000000e+00
-4.950000e+00 0.000000e+00
-4.900000e+00 0.000000e+00
-4.850000e+00 0.000000e+00
-4.800000e+00 0.000000e+00
-4.750000e+00 0.000000e+00
-4.700000e+00 0.000000e+00
-4.650000e+00 0.000000e+00
-4.600000e+00 0.000000e+00
-4.550000e+00 0.000000e+00
-4.500000e+00 0.000000e+00
-4.450000e+00 0.000000e+00
-4.400000e+00 0.000000e+00
-4.350000e+00 0.000000e+00
-4.300000e+00 0.000000e+00
-4.250000e+00 0.000000e+00
-4.200000e+00 0.000000e+00
-4.150000e+00 0.000000e+00
-4.100000e+00 0.000000e+00
-4.050000e+00 0.000000e+00
-4.000000e+00 0.000000e+00
-3.950000e+00 0.000000e+00
-3.900000e+00 0.000000e+00
-3.850000e+00 0.000000e+00
-3.800000e+00 0.000000e+00
-3.750000e+00 0.000000e+00
-3.700000e+00 0.000000e+00
-3.650000e+00 0.000000e+00
-3.600000e+00 0.000000e+00
-3.550000e+00 0.000000e+00
-3.500000e+00 0.000000e+00
-3.450000e+00 0.000000e+00
-3.400000e+00 0.000000e+00
-3.350000e+00 0.000000e+00
-3.300000e+00 0.000000e+00
-3.250000e+00 0.000000e+00
-3.200000e+00 0.000000e+00
-3.150000e+00 0.000000e+00
-3.100000e+00 1.401298e-45
-3.050000e+00 5.605194e-45
-3.000000e+00 0.000000e+00
-2.950000e+00 -1.681558e-44
-2.900000e+00 -1.541428e-44
-2.850000e+00 5.184804e-44
-2.800000e+00 1.443337e-43
-2.750000e+00 1.513402e-43
-2.700000e+00 -1.681558e-43
-2.650000e+00 -7.426882e-43
-2.600000e+00 -8.674037e-43
-2.550000e+00 5.170791e-43
-2.500000e+00 3.217381e-42
-2.450000e+00 4.264151e-42
-2.400000e+00 -9.612907e-43
-2.350000e+00 -1.301946e-41
-2.300000e+00 -2.092279e-41
-2.250000e+00 -3.904018e-42
-2.200000e+00 4.647827e-41
-2.150000e+00 9.257398e-41
-2.100000e+00 4.771561e-41
-2.050000e+00 -1.457995e-40
-2.000000e+00 -3.748151e-40
-1.950000e+00 -3.026917e-40
-1.900000e+00 3.782581e-40
-1.850000e+00 1.390308e-39
-1.800000e+00 1.523573e-39
-1.750000e+00 -6.416013e-40
-1.700000e+00 -4.698025e-39
-1.650000e+00 -6.646160e-39
-1.600000e+00 -6.102571e-40
-1.550000e+00 1.423105e-38
-1.500000e+00 2.589502e-38
-1.450000e+00 1.223111e-38
-1.400000e+00 -3.730759e-38
-1.350000e+00 -9.114944e-38
-1.300000e+00 -7.280644e-38
-1.250000e+00 7.684289e-38
-1.200000e+00 2.899785e-37
-1.150000e+00 3.249176e-37
-1.100000e+00 -7.600142e-38
-1.050000e+00 -8.253526e-37
-1.000000e+00 -1.230056e-36
-9.499998e-01 -3.233922e-37
-9.000001e-01 2.043717e-36
-8.499999e-01 4.103141e-36
-7.999997e-01 2.624799e-36
-7.500000e-01 -4.080159e-36
-6.999998e-01 -1.218708e-35
-6.500001e-01 -1.197771e-35
-5.999999e-01 4.770030e-36
-5.499997e-01 3.201945e-35
-5.000000e-01 4.349804e-35
-4.499998e-01 8.279970e-36
-4.000001e-01 -7.227619e-35
-3.499999e-01 -1.353959e-34
-2.999997e-01 -8.173462e-35
-2.500000e-01 1.284053e-34
-1.999998e-01 3.682850e-34
-1.500001e-01 3.571121e-34
-9.999990e-02 -1.176502e-34
-4.999971e-02 -8.684188e-34
0.000000e+00 -1.194537e-33
5.000019e-02 -3.201971e-34
1.000004e-01 1.700359e-33
1.500006e-01 3.351397e-33
1.999998e-01 2.309232e-33
2.500000e-01 -2.377688e-33
3.000002e-01 -8.026303e-33
3.500004e-01 -8.662170e-33
4.000006e-01 4.112581e-34
4.499998e-01 1.604873e-32
5.000000e-01 2.501471e-32
5.500002e-01 1.192995e-32
6.000004e-01 -2.443963e-32
6.500006e-01 -5.953426e-32
6.999998e-01 -5.278792e-32
7.500000e-01 1.744497e-32
8.000002e-01 1.165108e-31
8.500004e-01 1.544392e-31
9.000006e-01 4.957776e-32
9.499998e-01 -1.758075e-31
1.000000e+00 -3.542526e-31
1.050000e+00 -2.659820e-31
1.100000e+00 1.541851e-31
1.150001e+00 6.547505e-31
1.200000e+00 7.545770e-31
1.250000e+00 1.290326e-31
1.300000e+00 -9.549256e-31
1.350000e+00 -1.602046e-30
1.400001e+00 -9.134387e-31
1.450000e+00 1.044767e-30
1.500000e+00 2.803847e-30
1.550000e+00 2.363894e-30
1.600000e+00 -8.656817e-31
1.650001e+00 -4.628418e-30
1.700000e+00 -4.800442e-30
1.750000e+00 9.009334e-31
1.800000e+00 9.072939e-30
1.850000e+00 1.098771e-29
1.900001e+00 -5.479795e-31
1.950000e+00 -2.142505e-29
2.000000e+00 -3.277481e-29
2.050000e+00 -1.211620e-29
2.100000e+00 4.317435e-29
2.150001e+00 9.737341e-29
2.200000e+00 8.664924e-29
2.250000e+00 -3.248347e-29
2.300000e+00 -2.204707e-28
2.350000e+00 -3.327986e-28
2.400001e+00 -1.900341e-28
2.450000e+00 2.659271e-28
2.500000e+00 8.236480e-28
2.550000e+00 1.011733e-27
2.600000e+00 3.655135e-28
2.650001e+00 -1.125842e-27
2.700000e+00 -2.686877e-27
2.750000e+00 -2.921589e-27
2.800000e+00 -6.587274e-28
2.850000e+00 3.835620e-27
2.900001e+00 8.118616e-27
2.950000e+00 8.264950e-27
3.000000e+00 1.311576e-27
3.050000e+00 -1.154687e-26
3.100000e+00 -2.327730e-26
3.150001e+00 -2.321437e-26
3.200000e+00 -3.699260e-27
3.250000e+00 3.166761e-26
3.300000e+00 6.398354e-26
3.350000e+00 6.501935e-26
3.400001e+00 1.431033e-26
3.450000e+00 -7.978712e-26
3.500000e+00 -1.694263e-25
3.550000e+00 -1.813356e-25
3.600000e+00 -5.888513e-26
3.650001e+00 1.842351e-25
3.700000e+00 4.331549e-25
3.750000e+00 5.003038e-25
3.800000e+00 2.257114e-25
3.850000e+00 -3.852389e-25
3.900001e+00 -1.068800e-24
3.950000e+00 -1.350811e-24
4.000000e+00 -7.818885e-25
4.050000e+00 7.081409e-25
4.100000e+00 2.535387e-24
4.150001e+00 3.522878e-24
4.200000e+00 2.448402e-24
4.250000e+00 -1.055519e-24
4.300000e+00 -5.736221e-24
4.350000e+00 -8.757180e-24
4.400001e+00 -6.964877e-24
4.450000e+00 8.999078e-25
4.500000e+00 1.223127e-23
4.550000e+00 2.047940e-23
4.600000e+00 1.803303e-23
4.650001e+00 1.389179e-24
4.700000e+00 -2.419746e-23
4.750000e+00 -4.441296e-23
4.800000e+00 -4.227564e-23
4.850000e+00 -9.501574e-24
4.900001e+00 4.354599e-23
4.950000e+00 8.755746e-23
5.000000e+00 8.806689e-23
5.050000e+00 2.875805e-23
5.100000e+00 -6.966944e-23
5.150001e+00 -1.513980e-22
5.200000e+00 -1.548077e-22
5.250000e+00 -5.672132e-23
5.300000e+00 9.795534e-23
5.350000e+00 2.106385e-22
5.400001e+00 1.921887e-22
5.450000e+00 3.993075e-23
5.500000e+00 -1.331975e-22
5.550000e+00 -1.640749e-22
5.600000e+00 1.818871e-23
5.650001e+00 2.711328e-22
5.700000e+00 2.699038e-22
5.750000e+00 -2.507273e-22
5.800000e+00 -1.153079e-21
5.850000e+00 -1.728322e-21
5.900001e+00 -9.890102e-22
5.950000e+00 1.543185e-21
6.000000e+00 4.962828e-21
6.050000e+00 6.778760e-21
6.100000e+00 4.033073e-21
6.150001e+00 -4.371647e-21
6.200000e+00 -1.539030e-20
6.250000e+00 -2.161275e-20
6.300000e+00 -1.461235e-20
6.350000e+00 8.713475e-21
6.400001e+00 4.024223e-20
6.450000e+00 6.027223e-20
6.500000e+00 4.627022e-20
6.550000e+00 -1.105059e-20
6.600000e+00 -9.294773e-20
6.650001e+00 -1.514946e-19
6.700000e+00 -1.303110e-19
6.750000e+00 -2.735292e-21
6.800000e+00 1.927688e-19
6.850000e+00 3.482650e-19
6.900001e+00 3.317014e-19
6.950000e+00 7.208833e-20
7.000000e+00 -3.599601e-19
7.050000e+00 -7.379304e-19
7.100000e+00 -7.718566e-19
7.150001e+00 -2.874039e-19
7.200000e+00 6.006109e-19
7.250000e+00 1.447558e-18
7.300000e+00 1.655237e-18
7.350000e+00 8.273324e-19
7.400001e+00 -8.765946e-19
7.450000e+00 -2.638029e-18
7.500000e+00 -3.293989e-18
7.550000e+00 -2.004283e-18
7.600000e+00 1.062643e-18
7.650001e+00 4.489768e-18
7.700000e+00 6.134747e-18
7.750000e+00 4.318134e-18
7.800000e+00 -9.054725e-19
7.850000e+00 -7.218678e-18
7.900001e+00 -1.084341e-17
7.950000e+00 -8.560470e-18
8.000000e+00 4.360834e-21
8.050001e+00 1.124005e-17
8.100000e+00 1.864864e-17
8.150000e+00 1.616060e-17
8.200001e+00 2.222296e-18
8.250000e+00 -1.772049e-17
8.300001e+00 -3.244565e-17
8.350000e+00 -3.032748e-17
8.400000e+00 -6.840165e-18
8.450001e+00 2.986845e-17
8.500000e+00 5.964652e-17
8.550001e+00 5.922296e-17
8.600000e+00 1.675869e-17
8.650000e+00 -5.527560e-17
8.700001e+00 -1.183397e-16
8.750000e+00 -1.233801e-16
8.800001e+00 -4.084354e-17
8.850000e+00 1.092530e-16
8.900000e+00 2.486904e-16
8.950001e+00 2.704890e-16
9.000000e+00 1.034790e-16
9.050001e+00 -2.184061e-16
9.100000e+00 -5.312119e-16
9.150000e+00 -6.006071e-16
9.200001e+00 -2.623273e-16
9.250000e+00 4.232991e-16
9.300001e+00 1.112276e-15
9.350000e+00 1.302424e-15
9.400000e+00 6.340651e-16
9.450001e+00 -7.808125e-16
9.500000e+00 -2.235635e-15
9.550001e+00 -2.695309e-15
9.600000e+00 -1.419299e-15
9.650000e+00 1.373755e-15
9.700001e+00 4.279042e-15
9.750000e+00 5.263010e-15
9.800001e+00 2.902366e-15
9.850000e+00 -2.350088e-15
9.900000e+00 -7.800603e-15
9.950001e+00 -9.656638e-15
1.000000e+01 -5.382569e-15
1.005000e+01 4.034838e-15
1.010000e+01 1.361130e-14
1.015000e+01 1.664231e-14
1.020000e+01 8.980619e-15
1.025000e+01 -7.172038e-15
1.030000e+01 -2.289881e-14
1.035000e+01 -2.697299e-14
1.040000e+01 -1.327147e-14
1.045000e+01 1.333725e-14
1.050000e+01 3.740707e-14
1.055000e+01 4.115869e-14
1.060000e+01 1.672641e-14
1.065000e+01 -2.548769e-14
1.070000e+01 -5.958642e-14
1.075000e+01 -5.905432e-14
1.080000e+01 -1.597686e-14
1.085000e+01 4.848952e-14
1.090000e+01 9.244781e-14
1.095000e+01 7.903592e-14
1.100000e+01 4.879507e-15
1.105000e+01 -8.935109e-14
1.110000e+01 -1.386451e-13
1.115000e+01 -9.632181e-14
1.120000e+01 2.677230e-14
1.125000e+01 1.569181e-13
1.130000e+01 1.982633e-13
1.135000e+01 9.991904e-14
1.140000e+01 -9.515684e-14
1.145000e+01 -2.609981e-13
1.150000e+01 -2.651625e-13
1.155000e+01 -6.815752e-14
1.160000e+01 2.248462e-13
1.165000e+01 4.109508e-13
1.170000e+01 3.224819e-13
1.175000e+01 -3.584485e-14
1.180000e+01 -4.501007e-13
1.185000e+01 -6.128296e-13
1.190000e+01 -3.382159e-13
1.195000e+01 2.656582e-13
1.200000e+01 8.105566e-13
1.205000e+01 8.612283e-13
1.210000e+01 2.598702e-13
1.215000e+01 -6.868533e-13
1.220000e+01 -1.334658e-12
1.225000e+01 -1.117904e-12
1.230000e+01 -1.951901e-15
1.235000e+01 1.368304e-12
1.240000e+01 2.007862e-12
1.245000e+01 1.269406e-12
1.250000e+01 -5.850527e-13
1.255000e+01 -2.382603e-12
1.260000e+01 -2.737808e-12
1.265000e+01 -1.070766e-12
1.270000e+01 1.767742e-12
1.275000e+01 3.834386e-12
1.280000e+01 3.350843e-12
1.285000e+01 1.179639e-13
1.290000e+01 -3.969283e-12
1.295000e+01 -5.907380e-12
1.300000e+01 -3.652323e-12
1.305000e+01 2.074858e-12
1.310000e+01 7.692100e-12
1.315000e+01 8.832476e-12
1.320000e+01 3.498367e-12
1.325000e+01 -5.866627e-12
1.330000e+01 -1.320319e-11
1.335000e+01 -1.257528e-11
1.340000e+01 -2.639216e-12
1.345000e+01 1.135909e-11
1.350000e+01 2.007973e-11
1.355000e+01 1.614997e-11
1.360000e+01 2.853527e-15
1.365000e+01 -1.889877e-11
1.370000e+01 -2.728598e-11
1.375000e+01 -1.714908e-11
1.380000e+01 7.332599e-12
1.385000e+01 3.055099e-11
1.390000e+01 3.484142e-11
1.395000e+01 1.318567e-11
1.400000e+01 -2.350156e-11
1.405000e+01 -5.089639e-11
1.410000e+01 -4.649479e-11
1.415000e+01 -6.388000e-12
1.420000e+01 4.834965e-11
1.425000e+01 8.212880e-11
1.430000e+01 6.751654e-11
1.435000e+01 5.855000e-12
1.440000e+01 -6.924740e-11
1.445000e+01 -1.106496e-10
1.450000e+01 -8.851316e-11
1.455000e+01 -1.291929e-11
1.460000e+01 6.902716e-11
1.465000e+01 1.028873e-10
1.470000e+01 6.538260e-11
1.475000e+01 -1.521952e-11
1.480000e+01 -7.429905e-11
1.485000e+01 -5.553737e-11
1.490000e+01 4.363859e-11
1.495000e+01 1.593737e-10
1.500000e+01 1.961260e-10
1.505000e+01 9.118662e-11
1.510000e+01 -1.328182e-10
1.515000e+01 -3.666314e-10
1.520000e+01 -4.724031e-10
1.525000e+01 -3.683637e-10
1.530000e+01 -8.495314e-11
1.535000e+01 2.485546e-10
1.540000e+01 4.829662e-10
1.545000e+01 5.429328e-10
1.550000e+01 4.699115e-10
1.555000e+01 3.798024e-10
1.560000e+01 3.603973e-10
1.565000e+01 3.815200e-10
1.570000e+01 2.902340e-10
1.575000e+01 -9.054962e-11
1.580000e+01 -8.161134e-10
1.585000e+01 -1.725538e-09
1.590000e+01 -2.474431e-09
1.595000e+01 -2.690343e-09
1.600000e+01 -2.161410e-09
1.605000e+01 -9.393434e-10
1.610000e+01 7.098725e-10
1.615000e+01 2.470992e-09
1.620000e+01 4.140283e-09
1.625000e+01 5.661474e-09
1.630000e+01 7.006062e-09
1.635000e+01 7.988525e-09
1.640000e+01 8.171805e-09
1.645000e+01 6.970500e-09
1.650000e+01 3.921742e-09
1.655000e+01 -1.041741e-09
1.660000e+01 -7.512829e-09
1.665000e+01 -1.481237e-08
1.670000e+01 -2.237251e-08
1.675000e+01 -3.006330e-08
1.680000e+01 -3.824400e-08
1.685000e+01 -4.749682e-08
1.690000e+01 -5.822557e-08
1.695000e+01 -7.041368e-08
1.700000e+01 -8.374281e-08
1.705000e+01 -9.802402e-08
1.710000e+01 -1.136509e-07
1.715000e+01 -1.317303e-07
1.720000e+01 -1.537393e-07
1.725000e+01 -1.808853e-07
1.730000e+01 -2.135829e-07
1.735000e+01 -2.514327e-07
1.740000e+01 -2.937774e-07
1.745000e+01 -3.405200e-07
1.750000e+01 -3.926807e-07
1.755000e+01 -4.523142e-07
1.760000e+01 -5.218197e-07
1.765000e+01 -6.031054e-07
1.770000e+01 -6.971916e-07
1.775000e+01 -8.045595e-07
1.780000e+01 -9.260451e-07
1.785000e+01 -1.063663e-06
1.790000e+01 -1.220760e-06
1.795000e+01 -1.401315e-06
1.800000e+01 -1.608848e-06
1.805000e+01 -1.845673e-06
1.810000e+01 -2.113114e-06
1.815000e+01 -2.412654e-06
1.820000e+01 -2.747366e-06
1.825000e+01 -3.122693e-06
1.830000e+01 -3.546043e-06
1.835000e+01 -4.025401e-06
1.840000e+01 -4.567814e-06
1.845000e+01 -5.178773e-06
1.850000e+01 -5.862865e-06
1.855000e+01 -6.625385e-06
1.860000e+01 -7.473857e-06
1.865000e+01 -8.418558e-06
1.870000e+01 -9.471732e-06
1.875000e+01 -1.064609e-05
1.880000e+01 -1.195360e-05
1.885000e+01 -1.340535e-05
1.890000e+01 -1.501256e-05
1.895000e+01 -1.678788e-05
1.900000e+01 -1.874634e-05
1.905000e+01 -2.090517e-05
1.910000e+01 -2.328278e-05
1.915000e+01 -2.589786e-05
1.920000e+01 -2.876901e-05
1.925000e+01 -3.191542e-05
1.930000e+01 -3.535780e-05
1.935000e+01 -3.911879e-05
1.940000e+01 -4.322257e-05
1.945000e+01 -4.769383e-05
1.950000e+01 -5.255685e-05
1.955000e+01 -5.783552e-05
1.960000e+01 -6.355441e-05
1.965000e+01 -6.973994e-05
1.970000e+01 -7.642110e-05
1.975000e+01 -8.362857e-05
1.980000e+01 -9.139311e-05
1.985000e+01 -9.974349e-05
1.990000e+01 -1.087061e-04
1.995000e+01 -1.183053e-04
2.000000e+01 -1.285655e-04
2.005000e+01 -1.395116e-04
2.010000e+01 -1.511696e-04
2.015000e+01 -1.635651e-04
2.020000e+01 -1.767209e-04
2.025000e+01 -1.906564e-04
2.030000e+01 -2.053876e-04
2.035000e+01 -2.209279e-04
2.040000e+01 -2.372889e-04
2.045000e+01 -2.544802e-04
2.050000e+01 -2.725063e-04
2.055000e+01 -2.913660e-04
2.060000e+01 -3.110490e-04
2.065000e+01 -3.315383e-04
2.070000e+01 -3.528118e-04
2.075000e+01 -3.748445e-04
2.080000e+01 -3.976096e-04
2.085000e+01 -4.210760e-04
2.090000e+01 -4.452040e-04
2.095000e+01 -4.699416e-04
2.100000e+01 -4.952236e-04
2.105000e+01 -5.209710e-04
2.110000e+01 -5.470968e-04
2.115000e+01 -5.735076e-04
2.120000e+01 -6.001071e-04
2.125000e+01 -6.267940e-04
2.130000e+01 -6.534590e-04
2.135000e+01 -6.799817e-04
2.140000e+01 -7.062285e-04
2.145000e+01 -7.320525e-04
2.150000e+01 -7.572967e-04
2.155000e+01 -7.817959e-04
2.160000e+01 -8.053795e-04
2.165000e+01 -8.278726e-04
2.170000e+01 -8.490958e-04
2.175000e+01 -8.688648e-04
2.180000e+01 -8.869898e-04
2.185000e+01 -9.032767e-04
2.190000e+01 -9.175281e-04
2.195000e+01 -9.295433e-04
2.200000e+01 -9.391216e-04
2.205000e+01 -9.460633e-04
2.210000e+01 -9.501713e-04
2.215000e+01 -9.512535e-04
2.220000e+01 -9.491243e-04
2.225000e+01 -9.436060e-04
2.230000e+01 -9.345313e-04
2.235000e+01 -9.217424e-04
2.240000e+01 -9.050958e-04
2.245000e+01 -8.844600e-04
2.250000e+01 -8.597195e-04
2.255000e+01 -8.307765e-04
2.260000e+01 -7.975507e-04
2.265000e+01 -7.599829e-04
2.270000e+01 -7.180342e-04
2.275000e+01 -6.716890e-04
2.280000e+01 -6.209571e-04
2.285000e+01 -5.658760e-04
2.290000e+01 -5.065101e-04
2.295000e+01 -4.429518e-04
2.300000e+01 -3.753203e-04
2.305000e+01 -3.037612e-04
2.310000e+01 -2.284452e-04
2.315000e+01 -1.495698e-04
2.320000e+01 -6.735968e-05
2.325000e+01 1.793186e-05
2.330000e+01 1.060229e-04
2.335000e+01 1.966045e-04
2.340000e+01 2.893427e-04
2.345000e+01 3.838823e-04
2.350000e+01 4.798493e-04
2.355000e+01 5.768527e-04
2.360000e+01 6.744866e-04
2.365000e+01 7.723301e-04
2.370000e+01 8.699488e-04
2.375000e+01 9.668980e-04
2.380000e+01 1.062724e-03
2.385000e+01 1.156970e-03
2.390000e+01 1.249178e-03
2.395000e+01 1.338897e-03
2.400000e+01 1.425680e-03
2.405000e+01 1.509093e-03
2.410000e+01 1.588712e-03
2.415000e+01 1.664127e-03
2.420000e+01 1.734943e-03
2.425000e+01 1.800784e-03
2.430000e+01 1.861299e-03
2.435000e+01 1.916160e-03
2.440000e+01 1.965070e-03
2.445000e+01 2.007766e-03
2.450000e+01 2.044018e-03
2.455000e+01 2.073631e-03
2.460000e+01 2.096446e-03
2.465000e+01 2.112340e-03
2.470000e+01 2.121225e-03
2.475000e+01 2.123054e-03
2.480000e+01 2.117816e-03
2.485000e+01 2.105538e-03
2.490000e+01 2.086291e-03
2.495000e+01 2.060181e-03
2.500000e+01 2.027357e-03
2.505000e+01 1.988000e-03
2.510000e+01 1.942327e-03
2.515000e+01 1.890592e-03
2.520000e+01 1.833077e-03
2.525000e+01 1.770094e-03
2.530000e+01 1.701984e-03
2.535000e+01 1.629106e-03
2.540000e+01 1.551844e-03
2.545000e+01 1.470599e-03
2.550000e+01 1.385785e-03
2.555000e+01 1.297833e-03
2.560000e+01 1.207184e-03
2.565000e+01 1.114288e-03
2.570000e+01 1.019602e-03
2.575000e+01 9.235795e-04
2.580000e+01 8.266729e-04
2.585000e+01 7.293263e-04
2.590000e+01 6.319747e-04
2.595000e+01 5.350414e-04
2.600000e+01 4.389379e-04
2.605000e+01 3.440612e-04
2.610000e+01 2.507914e-04
2.615000e+01 1.594899e-04
2.620000e+01 7.049525e-05
2.625000e+01 -1.587722e-05
2.630000e+01 -9.933802e-05
2.635000e+01 -1.796226e-04
2.640000e+01 -2.564927e-04
2.645000e+01 -3.297357e-04
2.650000e+01 -3.991653e-04
2.655000e+01 -4.646233e-04
2.660000e+01 -5.259799e-04
2.665000e+01 -5.831343e-04
2.670000e+01 -6.360144e-04
2.675000e+01 -6.845742e-04
2.680000e+01 -7.287925e-04
2.685000e+01 -7.686710e-04
2.690000e+01 -8.042325e-04
2.695000e+01 -8.355202e-04
2.700000e+01 -8.625988e-04
2.705000e+01 -8.855540e-04
2.710000e+01 -9.044910e-04
2.715000e+01 -9.195344e-04
2.720000e+01 -9.308241e-04
2.725000e+01 -9.385129e-04
2.730000e+01 -9.427623e-04
2.735000e+01 -9.437419e-04
2.740000e+01 -9.416267e-04
2.745000e+01 -9.365989e-04
2.750000e+01 -9.288455e-04
2.755000e+01 -9.185614e-04
2.760000e+01 -9.059436e-04
2.765000e+01 -8.911924e-04
2.770000e+01 -8.745060e-04
2.775000e+01 -8.560778e-04
2.780000e+01 -8.360976e-04
2.785000e+01 -8.147493e-04
2.790000e+01 -7.922132e-04
2.795000e+01 -7.686635e-04
2.800000e+01 -7.442712e-04
2.805000e+01 -7.191997e-04
2.810000e+01 -6.936048e-04
2.815000e+01 -6.676334e-04
2.820000e+01 -6.414234e-04
2.825000e+01 -6.151032e-04
2.830000e+01 -5.887930e-04
2.835000e+01 -5.626035e-04
2.840000e+01 -5.366362e-04
2.845000e+01 -5.109825e-04
2.850000e+01 -4.857258e-04
2.855000e+01 -4.609399e-04
2.860000e+01 -4.366931e-04
2.865000e+01 -4.130453e-04
2.870000e+01 -3.900501e-04
2.875000e+01 -3.677520e-04
2.880000e+01 -3.461867e-04
2.885000e+01 -3.253809e-04
2.890000e+01 -3.053538e-04
2.895000e+01 -2.861193e-04
2.900000e+01 -2.676865e-04
2.905000e+01 -2.500627e-04
2.910000e+01 -2.332510e-04
2.915000e+01 -2.172501e-04
2.920000e+01 -2.020541e-04
2.925000e+01 -1.876516e-04
2.930000e+01 -1.740264e-04
2.935000e+01 -1.611597e-04
2.940000e+01 -1.490307e-04
2.945000e+01 -1.376181e-04
