-8.000000e+00 0.000000e+00
-7.990000e+00 0.000000e+00
-7.980000e+00 0.000000e+00
-7.970000e+00 0.000000e+00
-7.960000e+00 0.000000e+00
-7.950000e+00 0.000000e+00
-7.940000e+00 0.000000e+00
-7.930000e+00 0.000000e+00
-7.920000e+00 0.000000e+00
-7.910000e+00 0.000000e+00
-7.900000e+00 0.000000e+00
-7.890000e+00 0.000000e+00
-7.880000e+00 0.000000e+00
-7.870000e+00 0.000000e+00
-7.860000e+00 0.000000e+00
-7.850000e+00 0.000000e+00
-7.840000e+00 0.000000e+00
-7.830000e+00 0.000000e+00
-7.820000e+00 0.000000e+00
-7.810000e+00 0.000000e+00
-7.800000e+00 0.000000e+00
-7.790000e+00 0.000000e+00
-7.780000e+00 0.000000e+00
-7.770000e+00 0.000000e+00
-7.760000e+00 0.000000e+00
-7.750000e+00 0.000000e+00
-7.740000e+00 0.000000e+00
-7.730000e+00 0.000000e+00
-7.720000e+00 0.000000e+00
-7.710000e+00 0.000000e+00
-7.700000e+00 0.000000e+00
-7.690000e+00 0.000000e+00
-7.680000e+00 0.000000e+00
-7.670000e+00 0.000000e+00
-7.660000e+00 0.000000e+00
-7.650000e+00 0.000000e+00
-7.640000e+00 0.000000e+00
-7.630000e+00 0.000000e+00
-7.620000e+00 0.000000e+00
-7.610000e+00 0.000000e+00
-7.600000e+00 0.000000e+00
-7.590000e+00 0.000000e+00
-7.580000e+00 0.000000e+00
-7.570000e+00 0.000000e+00
-7.560000e+00 0.000000e+00
-7.550000e+00 0.000000e+00
-7.540000e+00 0.000000e+00
-7.530000e+00 0.000000e+00
-7.520000e+00 0.000000e+00
-7.510000e+00 0.000000e+00
-7.500000e+00 0.000000e+00
-7.490000e+00 0.000000e+00
-7.480000e+00 0.000000e+00
-7.470000e+00 0.000000e+00
-7.460000e+00 0.000000e+00
-7.450000e+00 0.000000e+00
-7.440000e+00 0.000000e+00
-7.430000e+00 0.000000e+00
-7.420000e+00 0.000000e+00
-7.410000e+00 0.000000e+00
-7.400000e+00 0.000000e+00
-7.390000e+00 0.000000e+00
-7.380000e+00 0.000000e+00
-7.370000e+00 0.000000e+00
-7.360000e+00 0.000000e+00
-7.350000e+00 0.000000e+00
-7.340000e+00 0.000000e+00
-7.330000e+00 0.000000e+00
-7.320000e+00 0.000000e+00
-7.310000e+00 0.000000e+00
-7.300000e+00 0.000000e+00
-7.290000e+00 0.000000e+00
-7.280000e+00 0.000000e+00
-7.270000e+00 0.000000e+00
-7.260000e+00 0.000000e+00
-7.250000e+00 0.000000e+00
-7.240000e+00 0.000000e+00
-7.230000e+00 0.000000e+00
-7.220000e+00 0.000000e+00
-7.210000e+00 0.000000e+00
-7.200000e+00 0.000000e+00
-7.190000e+00 0.000000e+00
-7.180000e+00 0.000000e+00
-7.170000e+00 0.000000e+00
-7.160000e+00 0.000000e+00
-7.150000e+00 0.000000e+00
-7.140000e+00 0.000000e+00
-7.130000e+00 0.000000e+00
-7.120000e+00 0.000000e+00
-7.110000e+00 0.000000e+00
-7.100000e+00 0.000000e+00
-7.090000e+00 0.000000e+00
-7.080000e+00 0.000000e+00
-7.070000e+00 0.000000e+00
-7.060000e+00 0.000000e+00
-7.050000e+00 0.000000e+00
-7.040000e+00 0.000000e+00
-7.030000e+00 0.000000e+00
-7.020000e+00 0.000000e+00
-7.010000e+00 0.000000e+00
-7.000000e+00 0.000000e+00
-6.990000e+00 0.000000e+00
-6.980000e+00 0.000000e+00
-6.970000e+00 0.000000e+00
-6.960000e+00 0.000000e+00
-6.950000e+00 0.000000e+00
-6.940000e+00 0.000000e+00
-6.930000e+00 0.000000e+00
-6.920000e+00 0.000000e+00
-6.910000e+00 0.000000e+00
-6.900000e+00 0.000000e+00
-6.890000e+00 0.000000e+00
-6.880000e+00 0.000000e+00
-6.870000e+00 0.000000e+00
-6.860000e+00 0.000000e+00
-6.850000e+00 0.000000e+00
-6.840000e+00 0.000000e+00
-6.830000e+00 0.000000e+00
-6.820000e+00 0.000000e+00
-6.810000e+00 0.000000e+00
-6.800000e+00 0.000000e+00
-6.790000e+00 0.000000e+00
-6.780000e+00 0.000000e+00
-6.770000e+00 0.000000e+00
-6.760000e+00 0.000000e+00
-6.750000e+00 0.000000e+00
-6.740000e+00 0.000000e+00
-6.730000e+00 0.000000e+00
-6.720000e+00 0.000000e+00
-6.710000e+00 0.000000e+00
-6.700000e+00 0.000000e+00
-6.690000e+00 0.000000e+00
-6.680000e+00 0.000000e+00
-6.670000e+00 0.000000e+00
-6.660000e+00 0.000000e+00
-6.650000e+00 0.000000e+00
-6.640000e+00 0.000000e+00
-6.630000e+00 0.000000e+00
-6.620000e+00 0.000000e+00
-6.610000e+00 0.000000e+00
-6.600000e+00 0.000000e+00
-6.590000e+00 0.000000e+00
-6.580000e+00 0.000000e+00
-6.570000e+00 0.000000e+00
-6.560000e+00 0.000000e+00
-6.550000e+00 0.000000e+00
-6.540000e+00 0.000000e+00
-6.530000e+00 0.000000e+00
-6.520000e+00 0.000000e+00
-6.510000e+00 0.000000e+00
-6.500000e+00 0.000000e+00
-6.490000e+00 0.000000e+00
-6.480000e+00 0.000000e+00
-6.470000e+00 0.000000e+00
-6.460000e+00 0.000000e+00
-6.450000e+00 0.000000e+00
-6.440000e+00 0.000000e+00
-6.430000e+00 0.000000e+00
-6.420000e+00 0.000000e+00
-6.410000e+00 0.000000e+00
-6.400000e+00 0.000000e+00
-6.390000e+00 0.000000e+00
-6.380000e+00 0.000000e+00
-6.370000e+00 0.000000e+00
-6.360000e+00 0.000000e+00
-6.350000e+00 0.000000e+00
-6.340000e+00 0.000000e+00
-6.330000e+00 0.000000e+00
-6.320000e+00 0.000000e+00
-6.310000e+00 0.000000e+00
-6.300000e+00 0.000000e+00
-6.290000e+00 0.000000e+00
-6.280000e+00 0.000000e+00
-6.270000e+00 0.000000e+00
-6.260000e+00 0.000000e+00
-6.250000e+00 0.000000e+00
-6.240000e+00 0.000000e+00
-6.230000e+00 0.000000e+00
-6.220000e+00 0.000000e+00
-6.210000e+00 0.000000e+00
-6.200000e+00 0.000000e+00
-6.190000e+00 0.000000e+00
-6.180000e+00 0.000000e+00
-6.170000e+00 0.000000e+00
-6.160000e+00 0.000000e+00
-6.150000e+00 0.000000e+00
-6.140000e+00 0.000000e+00
-6.130000e+00 0.000000e+00
-6.120000e+00 0.000000e+00
-6.110000e+00 0.000000e+00
-6.100000e+00 0.000000e+00
-6.090000e+00 0.000000e+00
-6.080000e+00 0.000000e+00
-6.070000e+00 0.000000e+00
-6.060000e+00 0.000000e+00
-6.050000e+00 0.000000e+00
-6.040000e+00 0.000000e+00
-6.030000e+00 0.000000e+00
-6.020000e+00 0.000000e+00
-6.010000e+00 0.000000e+00
-6.000000e+00 0.000000e+00
-5.990000e+00 0.000000e+00
-5.980000e+00 0.000000e+00
-5.970000e+00 0.000000e+00
-5.960000e+00 0.000000e+00
-5.950000e+00 0.000000e+00
-5.940000e+00 0.000000e+00
-5.930000e+00 0.000000e+00
-5.920000e+00 0.000000e+00
-5.910000e+00 0.000000e+00
-5.900000e+00 0.000000e+00
-5.890000e+00 0.000000e+00
-5.880000e+00 0.000000e+00
-5.870000e+00 0.000000e+00
-5.860000e+00 0.000000e+00
-5.850000e+00 0.000000e+00
-5.840000e+00 0.000000e+00
-5.830000e+00 0.000000e+00
-5.820000e+00 0.000000e+00
-5.810000e+00 0.000000e+00
-5.800000e+00 0.000000e+00
-5.790000e+00 0.000000e+00
-5.780000e+00 0.000000e+00
-5.770000e+00 0.000000e+00
-5.760000e+00 0.000000e+00
-5.750000e+00 0.000000e+00
-5.740000e+00 0.000000e+00
-5.730000e+00 0.000000e+00
-5.720000e+00 0.000000e+00
-5.710000e+00 0.000000e+00
-5.700000e+00 0.000000e+00
-5.690000e+00 0.000000e+00
-5.680000e+00 0.000000e+00
-5.670000e+00 0.000000e+00
-5.660000e+00 0.000000e+00
-5.650000e+00 0.000000e+00
-5.640000e+00 0.000000e+00
-5.630000e+00 0.000000e+00
-5.620000e+00 0.000000e+00
-5.610000e+00 0.000000e+00
-5.600000e+00 0.000000e+00
-5.590000e+00 0.000000e+00
-5.580000e+00 0.000000e+00
-5.570000e+00 0.000000e+00
-5.560000e+00 0.000000e+00
-5.550000e+00 0.000000e+00
-5.540000e+00 0.000000e+00
-5.530000e+00 0.000000e+00
-5.520000e+00 0.000000e+00
-5.510000e+00 0.000000e+00
-5.500000e+00 0.000000e+00
-5.490000e+00 0.000000e+00
-5.480000e+00 0.000000e+00
-5.470000e+00 0.000000e+00
-5.460000e+00 0.000000e+00
-5.450000e+00 0.000000e+00
-5.440000e+00 0.000000e+00
-5.430000e+00 0.000000e+00
-5.420000e+00 0.000000e+00
-5.410000e+00 0.000000e+00
-5.400000e+00 0.000000e+00
-5.390000e+00 0.000000e+00
-5.380000e+00 0.000000e+00
-5.370000e+00 0.000000e+00
-5.360000e+00 0.000000e+00
-5.350000e+00 0.000000e+00
-5.340000e+00 0.000000e+00
-5.330000e+00 0.000000e+00
-5.320000e+00 0.000000e+00
-5.310000e+00 0.000000e+00
-5.300000e+00 0.000000e+00
-5.290000e+00 0.000000e+00
-5.280000e+00 0.000000e+00
-5.270000e+00 0.000000e+00
-5.260000e+00 0.000000e+00
-5.250000e+00 0.000000e+00
-5.240000e+00 0.000000e+00
-5.230000e+00 0.000000e+00
-5.220000e+00 0.000000e+00
-5.210000e+00 0.000000e+00
-5.200000e+00 0.000000e+00
-5.190000e+00 0.000000e+00
-5.180000e+00 0.000000e+00
-5.170000e+00 0.000000e+00
-5.160000e+00 0.000000e+00
-5.150000e+00 0.000000e+00
-5.140000e+00 0.000000e+00
-5.130000e+00 0.000000e+00
-5.120000e+00 0.000000e+00
-5.110000e+00 0.000000e+00
-5.100000e+00 0.000000e+00
-5.090000e+00 0.000000e+00
-5.080000e+00 0.000000e+00
-5.070000e+00 0.000000e+00
-5.060000e+00 0.000000e+00
-5.050000e+00 0.000000e+00
-5.040000e+00 0.000000e+00
-5.030000e+00 0.000000e+00
-5.020000e+00 0.000000e+00
-5.010000e+00 0.000000e+00
-5.000000e+00 0.000000e+00
-4.990000e+00 0.000000e+00
-4.980000e+00 0.000000e+00
-4.970000e+00 0.000000e+00
-4.960000e+00 0.000000e+00
-4.950000e+00 0.000000e+00
-4.940000e+00 0.000000e+00
-4.930000e+00 0.000000e+00
-4.920000e+00 0.000000e+00
-4.910000e+00 0.000000e+00
-4.900000e+00 0.000000e+00
-4.890000e+00 0.000000e+00
-4.880000e+00 0.000000e+00
-4.870000e+00 0.000000e+00
-4.860000e+00 0.000000e+00
-4.850000e+00 0.000000e+00
-4.840000e+00 0.000000e+00
-4.830000e+00 0.000000e+00
-4.820000e+00 0.000000e+00
-4.810000e+00 0.000000e+00
-4.800000e+00 0.000000e+00
-4.790000e+00 0.000000e+00
-4.780000e+00 0.000000e+00
-4.770000e+00 0.000000e+00
-4.760000e+00 0.000000e+00
-4.750000e+00 0.000000e+00
-4.740000e+00 0.000000e+00
-4.730000e+00 0.000000e+00
-4.720000e+00 0.000000e+00
-4.710000e+00 0.000000e+00
-4.700000e+00 0.000000e+00
-4.690000e+00 0.000000e+00
-4.680000e+00 0.000000e+00
-4.670000e+00 0.000000e+00
-4.660000e+00 1.401298e-45
-4.650000e+00 1.401298e-45
-4.640000e+00 0.000000e+00
-4.630000e+00 0.000000e+00
-4.620000e+00 -2.802597e-45
-4.610000e+00 0.000000e+00
-4.600000e+00 0.000000e+00
-4.590000e+00 0.000000e+00
-4.580000e+00 -1.401298e-45
-4.570000e+00 -1.401298e-45
-4.560000e+00 -2.802597e-45
-4.550000e+00 -2.802597e-45
-4.540000e+00 -2.802597e-45
-4.530000e+00 -2.802597e-45
-4.520000e+00 -2.802597e-45
-4.510000e+00 -4.203895e-45
-4.500000e+00 -1.401298e-45
-4.490000e+00 -2.802597e-45
-4.480000e+00 -2.802597e-45
-4.470000e+00 -1.401298e-45
-4.460000e+00 -1.401298e-45
-4.450000e+00 0.000000e+00
-4.440000e+00 1.401298e-45
-4.430000e+00 0.000000e+00
-4.420000e+00 1.401298e-45
-4.410000e+00 2.802597e-45
-4.400000e+00 2.802597e-45
-4.390000e+00 -1.401298e-45
-4.380000e+00 -4.203895e-45
-4.370000e+00 -4.203895e-45
-4.360000e+00 -5.605194e-45
-4.350000e+00 -7.006492e-45
-4.340000e+00 -8.407791e-45
-4.330000e+00 -1.401298e-44
-4.320000e+00 -1.541428e-44
-4.310000e+00 -1.961818e-44
-4.300000e+00 -2.242078e-44
-4.290000e+00 -1.961818e-44
-4.280000e+00 -1.821688e-44
-4.270000e+00 -1.541428e-44
-4.260000e+00 -1.681558e-44
-4.250000e+00 -1.961818e-44
-4.240000e+00 -9.809089e-45
-4.230000e+00 -1.121039e-44
-4.220000e+00 -1.121039e-44
-4.210000e+00 -4.203895e-45
-4.200000e+00 -8.407791e-45
-4.190000e+00 -2.802597e-45
-4.180000e+00 -8.407791e-45
-4.170000e+00 -1.121039e-44
-4.160000e+00 -1.261169e-44
-4.150000e+00 -1.541428e-44
-4.140000e+00 -2.101948e-44
-4.130000e+00 -2.101948e-44
-4.120000e+00 -3.222986e-44
-4.110000e+00 -3.503246e-44
-4.100000e+00 -4.624285e-44
-4.090000e+00 -6.726233e-44
-4.080000e+00 -7.987401e-44
-4.070000e+00 -9.248570e-44
-4.060000e+00 -1.050974e-43
-4.050000e+00 -1.205117e-43
-4.040000e+00 -1.345247e-43
-4.030000e+00 -1.429324e-43
-4.020000e+00 -1.611493e-43
-4.010000e+00 -1.751623e-43
-4.000000e+00 -1.863727e-43
-3.990000e+00 -1.877740e-43
-3.980000e+00 -1.933792e-43
-3.970000e+00 -1.905766e-43
-3.960000e+00 -1.961818e-43
-3.950000e+00 -1.835701e-43
-3.940000e+00 -1.779649e-43
-3.930000e+00 -1.653532e-43
-3.920000e+00 -1.387285e-43
-3.910000e+00 -1.093013e-43
-3.900000e+00 -7.567012e-44
-3.890000e+00 -3.923636e-44
-3.880000e+00 5.605194e-45
-3.870000e+00 4.484155e-44
-3.860000e+00 9.108440e-44
-3.850000e+00 1.471363e-43
-3.840000e+00 1.877740e-43
-3.830000e+00 2.452272e-43
-3.820000e+00 2.872662e-43
-3.810000e+00 3.251012e-43
-3.800000e+00 3.587324e-43
-3.790000e+00 3.797519e-43
-3.780000e+00 4.007714e-43
-3.770000e+00 4.091792e-43
-3.760000e+00 4.049753e-43
-3.750000e+00 3.755480e-43
-3.740000e+00 3.321077e-43
-3.730000e+00 2.844636e-43
-3.720000e+00 2.158000e-43
-3.710000e+00 1.205117e-43
-3.700000e+00 1.401298e-44
-3.690000e+00 -1.121039e-43
-3.680000e+00 -2.480298e-43
-3.670000e+00 -4.049753e-43
-3.660000e+00 -5.591181e-43
-3.650000e+00 -7.118596e-43
-3.640000e+00 -8.744102e-43
-3.630000e+00 -1.011737e-42
-3.620000e+00 -1.143460e-42
-3.610000e+00 -1.256965e-42
-3.600000e+00 -1.345247e-42
-3.590000e+00 -1.376075e-42
-3.580000e+00 -1.390088e-42
-3.570000e+00 -1.343845e-42
-3.560000e+00 -1.231741e-42
-3.550000e+00 -1.059382e-42
-3.540000e+00 -8.253648e-43
-3.530000e+00 -5.198817e-43
-3.520000e+00 -1.499389e-43
-3.510000e+00 2.858649e-43
-3.500000e+00 8.001414e-43
-3.490000e+00 1.357858e-42
-3.480000e+00 1.956213e-42
-3.470000e+00 2.607816e-42
-3.460000e+00 3.249611e-42
-3.450000e+00 3.894208e-42
-3.440000e+00 4.512181e-42
-3.430000e+00 5.082510e-42
-3.420000e+00 5.558951e-42
-3.410000e+00 5.926091e-42
-3.400000e+00 6.161509e-42
-3.390000e+00 6.210555e-42
-3.380000e+00 6.059215e-42
-3.370000e+00 5.671055e-42
-3.360000e+00 5.030661e-42
-3.350000e+00 4.125423e-42
-3.340000e+00 2.932918e-42
-3.330000e+00 1.432127e-42
-3.320000e+00 -3.405155e-43
-3.310000e+00 -2.399023e-42
-3.300000e+00 -4.706962e-42
-3.290000e+00 -7.219490e-42
-3.280000e+00 -9.897371e-42
-3.270000e+00 -1.267615e-41
-3.260000e+00 -1.545632e-41
-3.250000e+00 -1.817344e-41
-3.240000e+00 -2.070699e-41
-3.230000e+00 -2.293645e-41
-3.220000e+00 -2.474413e-41
-3.210000e+00 -2.599269e-41
-3.200000e+00 -2.655601e-41
-3.190000e+00 -2.631498e-41
-3.180000e+00 -2.512528e-41
-3.170000e+00 -2.288461e-41
-3.160000e+00 -1.948926e-41
-3.150000e+00 -1.488739e-41
-3.140000e+00 -9.020158e-42
-3.130000e+00 -1.886148e-42
-3.120000e+00 6.459986e-42
-3.110000e+00 1.595799e-41
-3.100000e+00 2.643550e-41
-3.090000e+00 3.771315e-41
-3.080000e+00 4.951208e-41
-3.070000e+00 6.152541e-41
-3.060000e+00 7.335657e-41
-3.050000e+00 8.459218e-41
-3.040000e+00 9.472778e-41
-3.030000e+00 1.032421e-40
-3.020000e+00 1.095563e-40
-3.010000e+00 1.131002e-40
-3.000000e+00 1.133076e-40
-2.990000e+00 1.096152e-40
-2.980000e+00 1.015241e-40
-2.970000e+00 8.859289e-41
-2.960000e+00 7.049512e-41
-2.950000e+00 4.699955e-41
-2.940000e+00 1.807535e-41
-2.930000e+00 -1.617519e-41
-2.920000e+00 -5.541435e-41
-2.910000e+00 -9.907881e-41
-2.900000e+00 -1.463852e-40
-2.890000e+00 -1.962462e-40
-2.880000e+00 -2.473488e-40
-2.870000e+00 -2.981361e-40
-2.860000e+00 -3.467723e-40
-2.850000e+00 -3.912257e-40
-2.840000e+00 -4.293088e-40
-2.830000e+00 -4.586576e-40
-2.820000e+00 -4.768829e-40
-2.810000e+00 -4.815983e-40
-2.800000e+00 -4.704972e-40
-2.790000e+00 -4.414861e-40
-2.780000e+00 -3.927503e-40
-2.770000e+00 -3.228704e-40
-2.760000e+00 -2.309816e-40
-2.750000e+00 -1.168038e-40
-2.740000e+00 1.916416e-41
-2.730000e+00 1.756233e-40
-2.720000e+00 3.503596e-40
-2.710000e+00 5.401781e-40
-2.700000e+00 7.409226e-40
-2.690000e+00 9.473716e-40
-2.680000e+00 1.153379e-39
-2.670000e+00 1.351894e-39
-2.660000e+00 1.535043e-39
-2.650000e+00 1.694372e-39
-2.640000e+00 1.820957e-39
-2.630000e+00 1.905749e-39
-2.620000e+00 1.939795e-39
-2.610000e+00 1.914586e-39
-2.600000e+00 1.822400e-39
-2.590000e+00 1.656689e-39
-2.580000e+00 1.412516e-39
-2.570000e+00 1.086830e-39
-2.560000e+00 6.789403e-40
-2.550000e+00 1.907910e-40
-2.540000e+00 -3.727594e-40
-2.530000e+00 -1.003691e-39
-2.520000e+00 -1.690685e-39
-2.510000e+00 -2.419050e-39
-2.500000e+00 -3.170955e-39
-2.490000e+00 -3.925379e-39
-2.480000e+00 -4.658627e-39
-2.470000e+00 -5.344813e-39
-2.460000e+00 -5.956174e-39
-2.450000e+00 -6.464148e-39
-2.440000e+00 -6.839937e-39
-2.430000e+00 -7.055543e-39
-2.420000e+00 -7.084898e-39
-2.410000e+00 -6.904516e-39
-2.400000e+00 -6.495152e-39
-2.390000e+00 -5.842100e-39
-2.380000e+00 -4.936840e-39
-2.370000e+00 -3.777452e-39
-2.360000e+00 -2.369233e-39
-2.350000e+00 -7.255405e-40
-2.340000e+00 1.131777e-39
-2.330000e+00 3.173364e-39
-2.320000e+00 5.361420e-39
-2.310000e+00 7.651122e-39
-2.300000e+00 9.991066e-39
-2.290000e+00 1.232464e-38
-2.280000e+00 1.459117e-38
-2.270000e+00 1.672687e-38
-2.260000e+00 1.866870e-38
-2.250000e+00 2.035375e-38
-2.240000e+00 2.172207e-38
-2.230000e+00 2.271828e-38
-2.220000e+00 2.329325e-38
-2.210000e+00 2.340442e-38
-2.200000e+00 2.301817e-38
-2.190000e+00 2.210819e-38
-2.180000e+00 2.065711e-38
-2.170000e+00 1.865611e-38
-2.160000e+00 1.610100e-38
-2.150000e+00 1.299403e-38
-2.140000e+00 9.340914e-39
-2.130000e+00 5.146821e-39
-2.120000e+00 4.170166e-40
-2.110000e+00 -4.847124e-39
-2.100000e+00 -1.064847e-38
-2.090000e+00 -1.699735e-38
-2.080000e+00 -2.390971e-38
-2.070000e+00 -3.140332e-38
-2.060000e+00 -3.950383e-38
-2.050000e+00 -4.822922e-38
-2.040000e+00 -5.759051e-38
-2.030000e+00 -6.758183e-38
-2.020000e+00 -7.816519e-38
-2.010000e+00 -8.926391e-38
-2.000000e+00 -1.007468e-37
-1.990000e+00 -1.124076e-37
-1.980000e+00 -1.239561e-37
-1.970000e+00 -1.350015e-37
-1.960000e+00 -1.450296e-37
-1.950000e+00 -1.534035e-37
-1.940000e+00 -1.593503e-37
-1.930000e+00 -1.619587e-37
-1.920000e+00 -1.601868e-37
-1.910000e+00 -1.528738e-37
-1.900000e+00 -1.387674e-37
-1.890000e+00 -1.165630e-37
-1.880000e+00 -8.493476e-38
-1.870000e+00 -4.263062e-38
-1.860000e+00 1.149319e-38
-1.850000e+00 7.834634e-38
-1.840000e+00 1.585125e-37
-1.830000e+00 2.521979e-37
-1.820000e+00 3.589903e-37
-1.810000e+00 4.778725e-37
-1.800000e+00 6.070390e-37
-1.790000e+00 7.438013e-37
-1.780000e+00 8.844708e-37
-1.770000e+00 1.024366e-36
-1.760000e+00 1.157680e-36
-1.750000e+00 1.277559e-36
-1.740000e+00 1.376106e-36
-1.730000e+00 1.444530e-36
-1.720000e+00 1.473316e-36
-1.710000e+00 1.452381e-36
-1.700000e+00 1.371560e-36
-1.690000e+00 1.220843e-36
-1.680000e+00 9.908899e-37
-1.670000e+00 6.736251e-37
-1.660000e+00 2.627963e-37
-1.650000e+00 -2.453831e-37
-1.640000e+00 -8.516022e-37
-1.630000e+00 -1.552649e-36
-1.620000e+00 -2.340877e-36
-1.610000e+00 -3.203427e-36
-1.600000e+00 -4.121923e-36
-1.590000e+00 -5.071909e-36
-1.580000e+00 -6.022636e-36
-1.570000e+00 -6.937173e-36
-1.560000e+00 -7.772540e-36
-1.550000e+00 -8.480225e-36
-1.540000e+00 -9.007158e-36
-1.530000e+00 -9.296846e-36
-1.520000e+00 -9.291045e-36
-1.510000e+00 -8.931471e-36
-1.500000e+00 -8.162818e-36
-1.490000e+00 -6.934611e-36
-1.480000e+00 -5.204512e-36
-1.470000e+00 -2.942510e-36
-1.460000e+00 -1.323022e-37
-1.450000e+00 3.223303e-36
-1.440000e+00 7.100188e-36
-1.430000e+00 1.144916e-35
-1.420000e+00 1.619378e-35
-1.410000e+00 2.122764e-35
-1.400000e+00 2.641343e-35
-1.390000e+00 3.158255e-35
-1.380000e+00 3.653550e-35
-1.370000e+00 4.104442e-35
-1.360000e+00 4.485609e-35
-1.350000e+00 4.769820e-35
-1.340000e+00 4.928484e-35
-1.330000e+00 4.932642e-35
-1.320000e+00 4.753991e-35
-1.310000e+00 4.365934e-35
-1.300000e+00 3.745227e-35
-1.290000e+00 2.873065e-35
-1.280000e+00 1.736859e-35
-1.270000e+00 3.318382e-36
-1.260000e+00 -1.337553e-35
-1.250000e+00 -3.256225e-35
-1.240000e+00 -5.396829e-35
-1.230000e+00 -7.718942e-35
-1.220000e+00 -1.016847e-34
-1.210000e+00 -1.267674e-34
-1.200000e+00 -1.516110e-34
-1.190000e+00 -1.752543e-34
-1.180000e+00 -1.966134e-34
-1.170000e+00 -2.145034e-34
-1.160000e+00 -2.276628e-34
-1.150000e+00 -2.347896e-34
-1.140000e+00 -2.345856e-34
-1.130000e+00 -2.257978e-34
-1.120000e+00 -2.072807e-34
-1.110000e+00 -1.780525e-34
-1.100000e+00 -1.373601e-34
-1.090000e+00 -8.474810e-35
-1.080000e+00 -2.012135e-35
-1.070000e+00 5.619037e-35
-1.060000e+00 1.433713e-34
-1.050000e+00 2.400697e-34
-1.040000e+00 3.443645e-34
-1.030000e+00 4.537336e-34
-1.020000e+00 5.650532e-34
-1.010000e+00 6.746125e-34
-1.000000e+00 7.781571e-34
-9.900002e-01 8.709432e-34
-9.800000e-01 9.478498e-34
-9.700003e-01 1.003500e-33
-9.600000e-01 1.032397e-33
-9.500003e-01 1.029132e-33
-9.400001e-01 9.885790e-34
-9.300003e-01 9.061376e-34
-9.200001e-01 7.779676e-34
-9.100003e-01 6.012706e-34
-9.000001e-01 3.745484e-34
-8.900003e-01 9.785856e-35
-8.800001e-01 -2.269247e-34
-8.700004e-01 -5.959058e-34
-8.600001e-01 -1.002981e-33
-8.500004e-01 -1.439711e-33
-8.400002e-01 -1.895251e-33
-8.299999e-01 -2.356378e-33
-8.200002e-01 -2.807591e-33
-8.099999e-01 -3.231280e-33
-8.000002e-01 -3.608078e-33
-7.900000e-01 -3.917258e-33
-7.800002e-01 -4.137249e-33
-7.700000e-01 -4.246310e-33
-7.600002e-01 -4.223278e-33
-7.500000e-01 -4.048364e-33
-7.400002e-01 -3.704117e-33
-7.300000e-01 -3.176472e-33
-7.200003e-01 -2.455584e-33
-7.100000e-01 -1.537011e-33
-7.000003e-01 -4.226046e-34
-6.900001e-01 8.785576e-34
-6.800003e-01 2.349427e-33
-6.700001e-01 3.964336e-33
-6.600003e-01 5.688654e-33
-6.500001e-01 7.478612e-33
-6.400003e-01 9.281487e-33
-6.300001e-01 1.103611e-32
-6.200004e-01 1.267377e-32
-6.100001e-01 1.411949e-32
-6.000004e-01 1.529381e-32
-5.900002e-01 1.611471e-32
-5.800004e-01 1.650039e-32
-5.700002e-01 1.637200e-32
-5.599999e-01 1.565688e-32
-5.500002e-01 1.429214e-32
-5.400000e-01 1.222814e-32
-5.300002e-01 9.432396e-33
-5.200000e-01 5.892991e-33
-5.100002e-01 1.622386e-33
-5.000000e-01 -3.339705e-33
-4.900002e-01 -8.923570e-33
-4.800000e-01 -1.502770e-32
-4.700003e-01 -2.151732e-32
-4.600000e-01 -2.822451e-32
-4.500003e-01 -3.494921e-32
-4.400001e-01 -4.146132e-32
-4.300003e-01 -4.750456e-32
-4.200001e-01 -5.280137e-32
-4.100003e-01 -5.705959e-32
-4.000001e-01 -5.998048e-32
-3.900003e-01 -6.126812e-32
-3.800001e-01 -6.063993e-32
-3.700004e-01 -5.783908e-32
-3.600001e-01 -5.264578e-32
-3.500004e-01 -4.489190e-32
-3.400002e-01 -3.447284e-32
-3.300004e-01 -2.136079e-32
-3.200002e-01 -5.616855e-33
-3.099999e-01 1.259843e-32
-3.000002e-01 3.301639e-32
-2.900000e-01 5.525448e-32
-2.800002e-01 7.881211e-32
-2.700000e-01 1.030721e-31
-2.600002e-01 1.273051e-31
-2.500000e-01 1.506782e-31
-2.400002e-01 1.722693e-31
-2.300000e-01 1.910858e-31
-2.200003e-01 2.060888e-31
-2.100000e-01 2.162225e-31
-2.000003e-01 2.204473e-31
-1.900001e-01 2.177774e-31
-1.800003e-01 2.073233e-31
-1.700001e-01 1.883342e-31
-1.600003e-01 1.602452e-31
-1.500001e-01 1.227190e-31
-1.400003e-01 7.569371e-32
-1.300001e-01 1.942033e-32
-1.200004e-01 -4.550067e-32
-1.100001e-01 -1.180912e-31
-1.000004e-01 -1.969761e-31
-9.000015e-02 -2.803742e-31
-8.000040e-02 -3.661033e-31
-7.000017e-02 -4.515955e-31
-5.999994e-02 -5.339334e-31
-5.000019e-02 -6.098981e-31
-3.999996e-02 -6.760373e-31
-3.000021e-02 -7.287487e-31
-1.999998e-02 -7.643794e-31
-1.000023e-02 -7.793455e-31
0.000000e+00 -7.702580e-31
1.000023e-02 -7.340634e-31
1.999950e-02 -6.681956e-31
2.999973e-02 -5.707270e-31
3.999996e-02 -4.405174e-31
5.000019e-02 -2.773660e-31
5.999947e-02 -8.214168e-32
6.999969e-02 1.430980e-31
7.999992e-02 3.950134e-31
9.000015e-02 6.689175e-31
9.999943e-02 9.587536e-31
1.099997e-01 1.257101e-30
1.199999e-01 1.555250e-30
1.300001e-01 1.843298e-30
1.399994e-01 2.110330e-30
1.499996e-01 2.344635e-30
1.599998e-01 2.533990e-30
1.700001e-01 2.665987e-30
1.799994e-01 2.728424e-30
1.899996e-01 2.709728e-30
1.999998e-01 2.599417e-30
2.100000e-01 2.388607e-30
2.200003e-01 2.070504e-30
2.299995e-01 1.640883e-30
2.399998e-01 1.098622e-30
2.500000e-01 4.461019e-31
2.600002e-01 -3.103776e-31
2.699995e-01 -1.160289e-30
2.799997e-01 -2.088662e-30
2.900000e-01 -3.075983e-30
3.000002e-01 -4.098211e-30
3.099995e-01 -5.126987e-30
3.199997e-01 -6.129950e-30
3.299999e-01 -7.071280e-30
3.400002e-01 -7.912386e-30
3.499994e-01 -8.612791e-30
3.599997e-01 -9.131189e-30
3.699999e-01 -9.426636e-30
3.800001e-01 -9.459969e-30
3.899994e-01 -9.195229e-30
3.999996e-01 -8.601272e-30
4.099998e-01 -7.653366e-30
4.200001e-01 -6.334802e-30
4.299994e-01 -4.638500e-30
4.399996e-01 -2.568447e-30
4.499998e-01 -1.409997e-31
4.600000e-01 2.614043e-30
4.700003e-01 5.652641e-30
4.799995e-01 8.916113e-30
4.899998e-01 1.233107e-29
5.000000e-01 1.580993e-29
5.100002e-01 1.925174e-29
5.199995e-01 2.254386e-29
5.299997e-01 2.556377e-29
5.400000e-01 2.818183e-29
5.500002e-01 3.026439e-29
5.599995e-01 3.167744e-29
5.699997e-01 3.229083e-29
5.799999e-01 3.198273e-29
5.900002e-01 3.064443e-29
5.999994e-01 2.818550e-29
6.099997e-01 2.453875e-29
6.199999e-01 1.966531e-29
6.300001e-01 1.355928e-29
6.399994e-01 6.251942e-30
6.499996e-01 -2.184377e-30
6.599998e-01 -1.163371e-29
6.700001e-01 -2.193460e-29
6.799994e-01 -3.287932e-29
6.899996e-01 -4.421472e-29
6.999998e-01 -5.564447e-29
7.100000e-01 -6.683261e-29
7.200003e-01 -7.740928e-29
7.299995e-01 -8.697779e-29
7.399998e-01 -9.512338e-29
7.500000e-01 -1.014238e-28
7.600002e-01 -1.054609e-28
7.699995e-01 -1.068344e-28
7.799997e-01 -1.051757e-28
7.900000e-01 -1.001628e-28
8.000002e-01 -9.153607e-29
8.099995e-01 -7.911283e-29
8.199997e-01 -6.280273e-29
8.299999e-01 -4.262077e-29
8.400002e-01 -1.869978e-29
8.499994e-01 8.700030e-30
8.599997e-01 3.918354e-29
8.699999e-01 7.221697e-29
8.800001e-01 1.071274e-28
8.899994e-01 1.431071e-28
8.999996e-01 1.792210e-28
9.099998e-01 2.144206e-28
9.200001e-01 2.475615e-28
9.299994e-01 2.774269e-28
9.399996e-01 3.027544e-28
9.499998e-01 3.222687e-28
9.600000e-01 3.347175e-28
9.700003e-01 3.389125e-28
9.799995e-01 3.337689e-28
9.899998e-01 3.183519e-28
1.000000e+00 2.919201e-28
1.010000e+00 2.539684e-28
1.020000e+00 2.042705e-28
1.030000e+00 1.429164e-28
1.040000e+00 7.034519e-29
1.050000e+00 -1.262869e-29
1.059999e+00 -1.047977e-28
1.070000e+00 -2.045527e-28
1.080000e+00 -3.098839e-28
1.090000e+00 -4.183989e-28
1.099999e+00 -5.273448e-28
1.110000e+00 -6.336534e-28
1.120000e+00 -7.339924e-28
1.130000e+00 -8.248341e-28
1.139999e+00 -9.025372e-28
1.150000e+00 -9.634360e-28
1.160000e+00 -1.003947e-27
1.170000e+00 -1.020683e-27
1.179999e+00 -1.010561e-27
1.190000e+00 -9.709383e-28
1.200000e+00 -8.997231e-28
1.210000e+00 -7.954975e-28
1.220000e+00 -6.576315e-28
1.230000e+00 -4.863800e-28
1.240000e+00 -2.829724e-28
1.250000e+00 -4.967610e-29
1.260000e+00 2.101562e-28
1.270000e+00 4.920701e-28
1.280000e+00 7.905236e-28
1.290000e+00 1.098930e-27
1.300000e+00 1.409736e-27
1.309999e+00 1.714539e-27
1.320000e+00 2.004238e-27
1.330000e+00 2.269218e-27
1.340000e+00 2.499565e-27
1.349999e+00 2.685331e-27
1.360000e+00 2.816792e-27
1.370000e+00 2.884757e-27
1.380000e+00 2.880871e-27
1.389999e+00 2.797945e-27
1.400000e+00 2.630263e-27
1.410000e+00 2.373893e-27
1.420000e+00 2.026973e-27
1.429999e+00 1.589968e-27
1.440000e+00 1.065879e-27
1.450000e+00 4.604172e-28
1.460000e+00 -2.179064e-28
1.469999e+00 -9.577318e-28
1.480000e+00 -1.744903e-27
1.490000e+00 -2.562595e-27
1.500000e+00 -3.391519e-27
1.510000e+00 -4.210223e-27
1.520000e+00 -4.995499e-27
1.530000e+00 -5.722840e-27
1.540000e+00 -6.367016e-27
1.550000e+00 -6.902702e-27
1.559999e+00 -7.305159e-27
1.570000e+00 -7.550980e-27
1.580000e+00 -7.618884e-27
1.590000e+00 -7.490459e-27
1.599999e+00 -7.150975e-27
1.610000e+00 -6.590080e-27
1.620000e+00 -5.802547e-27
1.630000e+00 -4.788819e-27
1.639999e+00 -3.555544e-27
1.650000e+00 -2.115939e-27
1.660000e+00 -4.900139e-28
1.670000e+00 1.295382e-27
1.679999e+00 3.206699e-27
1.690000e+00 5.204013e-27
1.700000e+00 7.241567e-27
1.710000e+00 9.268518e-27
1.719999e+00 1.122994e-26
1.730000e+00 1.306788e-26
1.740000e+00 1.472285e-26
1.750000e+00 1.613515e-26
1.760000e+00 1.724666e-26
1.770000e+00 1.800243e-26
1.780000e+00 1.835257e-26
1.790000e+00 1.825399e-26
1.800000e+00 1.767217e-26
1.809999e+00 1.658279e-26
1.820000e+00 1.497329e-26
1.830000e+00 1.284410e-26
1.840000e+00 1.020980e-26
1.849999e+00 7.099720e-27
1.860000e+00 3.558471e-27
1.870000e+00 -3.542014e-28
1.880000e+00 -4.563789e-27
1.889999e+00 -8.981894e-27
1.900000e+00 -1.350762e-26
1.910000e+00 -1.802944e-26
1.920000e+00 -2.242726e-26
1.929999e+00 -2.657537e-26
1.940000e+00 -3.034535e-26
1.950000e+00 -3.360931e-26
1.960000e+00 -3.624376e-26
1.969999e+00 -3.813320e-26
1.980000e+00 -3.917392e-26
1.990000e+00 -3.927809e-26
2.000000e+00 -3.837689e-26
2.010000e+00 -3.642432e-26
2.020000e+00 -3.339983e-26
2.030000e+00 -2.931108e-26
2.040000e+00 -2.419536e-26
2.050000e+00 -1.812106e-26
2.059999e+00 -1.118782e-26
2.070000e+00 -3.525739e-27
2.080000e+00 4.705846e-27
2.090000e+00 1.332112e-26
2.099999e+00 2.211117e-26
2.110000e+00 3.084850e-26
2.120000e+00 3.929209e-26
2.130000e+00 4.719372e-26
2.139999e+00 5.430462e-26
2.150000e+00 6.038258e-26
2.160000e+00 6.520001e-26
2.170000e+00 6.855093e-26
2.179999e+00 7.025955e-26
2.190000e+00 7.018654e-26
2.200000e+00 6.823635e-26
2.210000e+00 6.436305e-26
2.219999e+00 5.857502e-26
2.230000e+00 5.093820e-26
2.240000e+00 4.157859e-26
2.250000e+00 3.068160e-26
2.260000e+00 1.849124e-26
2.270000e+00 5.306043e-27
2.280000e+00 -8.526468e-27
2.290000e+00 -2.261743e-26
2.300000e+00 -3.654608e-26
2.309999e+00 -4.987100e-26
2.320000e+00 -6.214314e-26
2.330000e+00 -7.292002e-26
2.340000e+00 -8.178044e-26
2.349999e+00 -8.834005e-26
2.360000e+00 -9.226819e-26
2.370000e+00 -9.330082e-26
2.380000e+00 -9.125697e-26
2.389999e+00 -8.605065e-26
2.400000e+00 -7.770063e-26
2.410000e+00 -6.634066e-26
2.420000e+00 -5.222059e-26
2.429999e+00 -3.571202e-26
2.440000e+00 -1.730261e-26
2.450000e+00 2.408456e-27
2.460000e+00 2.272460e-26
2.469999e+00 4.286540e-26
2.480000e+00 6.198660e-26
2.490000e+00 7.920604e-26
2.500000e+00 9.362880e-26
2.510000e+00 1.043831e-25
2.520000e+00 1.106478e-25
2.530000e+00 1.116933e-25
2.540000e+00 1.069132e-25
2.550000e+00 9.586214e-26
2.559999e+00 7.828821e-26
2.570000e+00 5.416434e-26
2.580000e+00 2.371226e-26
2.590000e+00 -1.257363e-26
2.599999e+00 -5.391438e-26
2.610000e+00 -9.924379e-26
2.620000e+00 -1.472083e-25
2.630000e+00 -1.961830e-25
2.639999e+00 -2.442959e-25
2.650000e+00 -2.894646e-25
2.660000e+00 -3.294415e-25
2.670000e+00 -3.618766e-25
2.679999e+00 -3.843776e-25
2.690000e+00 -3.945980e-25
2.700000e+00 -3.903125e-25
2.710000e+00 -3.695164e-25
2.719999e+00 -3.305133e-25
2.730000e+00 -2.720154e-25
2.740000e+00 -1.932412e-25
2.750000e+00 -9.399458e-26
2.760000e+00 2.524422e-26
2.770000e+00 1.632548e-25
2.780000e+00 3.180232e-25
2.790000e+00 4.867043e-25
2.800000e+00 6.656095e-25
2.809999e+00 8.502217e-25
2.820000e+00 1.035229e-24
2.830000e+00 1.214604e-24
2.840000e+00 1.381693e-24
2.849999e+00 1.529348e-24
2.860000e+00 1.650089e-24
2.870000e+00 1.736307e-24
2.880000e+00 1.780462e-24
2.889999e+00 1.775333e-24
2.900000e+00 1.714281e-24
2.910000e+00 1.591514e-24
2.920000e+00 1.402386e-24
2.929999e+00 1.143659e-24
2.940000e+00 8.137789e-25
2.950000e+00 4.131364e-25
2.960000e+00 -5.572457e-26
2.969999e+00 -5.878930e-25
2.980000e+00 -1.175968e-24
2.990000e+00 -1.809969e-24
3.000000e+00 -2.477309e-24
3.010000e+00 -3.162851e-24
3.020000e+00 -3.849047e-24
3.030000e+00 -4.516148e-24
3.040000e+00 -5.142496e-24
3.050000e+00 -5.704947e-24
3.059999e+00 -6.179340e-24