-8.000000e+00 0.000000e+00
-7.990000e+00 0.000000e+00
-7.980000e+00 0.000000e+00
-7.970000e+00 0.000000e+00
-7.960000e+00 0.000000e+00
-7.950000e+00 0.000000e+00
-7.940000e+00 0.000000e+00
-7.930000e+00 0.000000e+00
-7.920000e+00 0.000000e+00
-7.910000e+00 0.000000e+00
-7.900000e+00 0.000000e+00
-7.890000e+00 0.000000e+00
-7.880000e+00 0.000000e+00
-7.870000e+00 0.000000e+00
-7.860000e+00 0.000000e+00
-7.850000e+00 0.000000e+00
-7.840000e+00 0.000000e+00
-7.830000e+00 0.000000e+00
-7.820000e+00 0.000000e+00
-7.810000e+00 0.000000e+00
-7.800000e+00 0.000000e+00
-7.790000e+00 0.000000e+00
-7.780000e+00 0.000000e+00
-7.770000e+00 0.000000e+00
-7.760000e+00 0.000000e+00
-7.750000e+00 0.000000e+00
-7.740000e+00 0.000000e+00
-7.730000e+00 0.000000e+00
-7.720000e+00 0.000000e+00
-7.710000e+00 0.000000e+00
-7.700000e+00 0.000000e+00
-7.690000e+00 0.000000e+00
-7.680000e+00 0.000000e+00
-7.670000e+00 0.000000e+00
-7.660000e+00 0.000000e+00
-7.650000e+00 0.000000e+00
-7.640000e+00 0.000000e+00
-7.630000e+00 0.000000e+00
-7.620000e+00 0.000000e+00
-7.610000e+00 0.000000e+00
-7.600000e+00 0.000000e+00
-7.590000e+00 0.000000e+00
-7.580000e+00 0.000000e+00
-7.570000e+00 0.000000e+00
-7.560000e+00 0.000000e+00
-7.550000e+00 0.000000e+00
-7.540000e+00 0.000000e+00
-7.530000e+00 0.000000e+00
-7.520000e+00 0.000000e+00
-7.510000e+00 0.000000e+00
-7.500000e+00 0.000000e+00
-7.490000e+00 0.000000e+00
-7.480000e+00 0.000000e+00
-7.470000e+00 0.000000e+00
-7.460000e+00 0.000000e+00
-7.450000e+00 0.000000e+00
-7.440000e+00 0.000000e+00
-7.430000e+00 0.000000e+00
-7.420000e+00 0.000000e+00
-7.410000e+00 0.000000e+00
-7.400000e+00 0.000000e+00
-7.390000e+00 0.000000e+00
-7.380000e+00 0.000000e+00
-7.370000e+00 0.000000e+00
-7.360000e+00 0.000000e+00
-7.350000e+00 0.000000e+00
-7.340000e+00 0.000000e+00
-7.330000e+00 0.000000e+00
-7.320000e+00 0.000000e+00
-7.310000e+00 0.000000e+00
-7.300000e+00 0.000000e+00
-7.290000e+00 0.000000e+00
-7.280000e+00 0.000000e+00
-7.270000e+00 0.000000e+00
-7.260000e+00 0.000000e+00
-7.250000e+00 0.000000e+00
-7.240000e+00 0.000000e+00
-7.230000e+00 0.000000e+00
-7.220000e+00 0.000000e+00
-7.210000e+00 0.000000e+00
-7.200000e+00 0.000000e+00
-7.190000e+00 0.000000e+00
-7.180000e+00 0.000000e+00
-7.170000e+00 1.401298e-45
-7.160000e+00 1.401298e-45
-7.150000e+00 2.802597e-45
-7.140000e+00 4.203895e-45
-7.130000e+00 5.605194e-45
-7.120000e+00 1.121039e-44
-7.110000e+00 1.681558e-44
-7.100000e+00 2.382207e-44
-7.090000e+00 3.363116e-44
-7.080000e+00 4.624285e-44
-7.070000e+00 6.726233e-44
-7.060000e+00 9.528830e-44
-7.050000e+00 1.317221e-43
-7.040000e+00 1.793662e-43
-7.030000e+00 2.410233e-43
-7.020000e+00 3.222986e-43
-7.010000e+00 4.315999e-43
-7.000000e+00 5.829402e-43
-6.990000e+00 7.791219e-43
-6.980000e+00 1.041165e-42
-6.970000e+00 1.387285e-42
-6.960000e+00 1.841306e-42
-6.950000e+00 2.429852e-42
-6.940000e+00 3.193559e-42
-6.930000e+00 4.174468e-42
-6.920000e+00 5.431433e-42
-6.910000e+00 7.035920e-42
-6.900000e+00 9.070605e-42
-6.890000e+00 1.163919e-41
-6.880000e+00 1.486217e-41
-6.870000e+00 1.888250e-41
-6.860000e+00 2.388093e-41
-6.850000e+00 3.005645e-41
-6.840000e+00 3.764448e-41
-6.830000e+00 4.692108e-41
-6.820000e+00 5.818752e-41
-6.810000e+00 7.180534e-41
-6.800000e+00 8.816409e-41
-6.790000e+00 1.076996e-40
-6.780000e+00 1.308813e-40
-6.770000e+00 1.582220e-40
-6.760000e+00 1.902431e-40
-6.750000e+00 2.274966e-40
-6.740000e+00 2.705123e-40
-6.730000e+00 3.198043e-40
-6.720000e+00 3.758226e-40
-6.710000e+00 4.389189e-40
-6.700000e+00 5.093047e-40
-6.690000e+00 5.869899e-40
-6.680000e+00 6.717124e-40
-6.670000e+00 7.628669e-40
-6.660000e+00 8.594065e-40
-6.650000e+00 9.597577e-40
-6.640000e+00 1.061674e-39
-6.630000e+00 1.162150e-39
-6.620000e+00 1.257265e-39
-6.610000e+00 1.342066e-39
-6.600000e+00 1.410422e-39
-6.590000e+00 1.454914e-39
-6.580000e+00 1.466689e-39
-6.570000e+00 1.435400e-39
-6.560000e+00 1.349134e-39
-6.550000e+00 1.194387e-39
-6.540000e+00 9.561368e-40
-6.530000e+00 6.179250e-40
-6.520000e+00 1.621036e-40
-6.510000e+00 -4.298637e-40
-6.500000e+00 -1.176942e-39
-6.490000e+00 -2.097933e-39
-6.480000e+00 -3.210691e-39
-6.470000e+00 -4.531205e-39
-6.460000e+00 -6.072450e-39
-6.450000e+00 -7.843037e-39
-6.440000e+00 -9.845688e-39
-6.430000e+00 -1.207550e-38
-6.420000e+00 -1.451801e-38
-6.410000e+00 -1.714717e-38
-6.400000e+00 -1.992315e-38
-6.390000e+00 -2.279013e-38
-6.380000e+00 -2.567412e-38
-6.370000e+00 -2.848093e-38
-6.360000e+00 -3.109432e-38
-6.350000e+00 -3.337457e-38
-6.340000e+00 -3.515763e-38
-6.330000e+00 -3.625488e-38
-6.320000e+00 -3.645392e-38
-6.310000e+00 -3.552027e-38
-6.300000e+00 -3.320064e-38
-6.290000e+00 -2.922747e-38
-6.280000e+00 -2.332531e-38
-6.270000e+00 -1.521911e-38
-6.260000e+00 -4.644423e-39
-6.250000e+00 8.640224e-39
-6.240000e+00 2.483875e-38
-6.230000e+00 4.410093e-38
-6.220000e+00 6.650383e-38
-6.210000e+00 9.203154e-38
-6.200000e+00 1.205537e-37
-6.190000e+00 1.518030e-37
-6.180000e+00 1.853531e-37
-6.170000e+00 2.205968e-37
-6.160000e+00 2.567264e-37
-6.150000e+00 2.927171e-37
-6.140000e+00 3.273143e-37
-6.130000e+00 3.590273e-37
-6.120000e+00 3.861297e-37
-6.110000e+00 4.066702e-37
-6.100000e+00 4.184918e-37
-6.090000e+00 4.192657e-37
-6.080000e+00 4.065373e-37
-6.070000e+00 3.777881e-37
-6.060000e+00 3.305124e-37
-6.050000e+00 2.623118e-37
-6.040000e+00 1.710048e-37
-6.030000e+00 5.475251e-38
-6.020000e+00 -8.780137e-38
-6.010000e+00 -2.573793e-37
-6.000000e+00 -4.539094e-37
-5.990000e+00 -6.763616e-37
-5.980000e+00 -9.225834e-37
-5.970000e+00 -1.189146e-36
-5.960000e+00 -1.471202e-36
-5.950000e+00 -1.762372e-36
-5.940000e+00 -2.054654e-36
-5.930000e+00 -2.338391e-36
-5.920000e+00 -2.602275e-36
-5.910000e+00 -2.833425e-36
-5.900000e+00 -3.017538e-36
-5.890000e+00 -3.139112e-36
-5.880000e+00 -3.181771e-36
-5.870000e+00 -3.128677e-36
-5.860000e+00 -2.963043e-36
-5.850000e+00 -2.668749e-36
-5.840000e+00 -2.231036e-36
-5.830000e+00 -1.637311e-36
-5.820000e+00 -8.779994e-37
-5.810000e+00 5.253013e-38
-5.800000e+00 1.155019e-36
-5.790000e+00 2.424372e-36
-5.780000e+00 3.848740e-36
-5.770000e+00 5.408688e-36
-5.760000e+00 7.076475e-36
-5.750000e+00 8.815507e-36
-5.740000e+00 1.058002e-35
-5.730000e+00 1.231504e-35
-5.720000e+00 1.395663e-35
-5.710000e+00 1.543260e-35
-5.700000e+00 1.666355e-35
-5.690000e+00 1.756439e-35
-5.680000e+00 1.804642e-35
-5.670000e+00 1.801977e-35
-5.660000e+00 1.739645e-35
-5.650000e+00 1.609376e-35
-5.640000e+00 1.403823e-35
-5.630000e+00 1.116975e-35
-5.620000e+00 7.446110e-36
-5.610000e+00 2.847579e-36
-5.600000e+00 -2.618560e-36
-5.590000e+00 -8.913609e-36
-5.580000e+00 -1.596348e-35
-5.570000e+00 -2.365530e-35
-5.560000e+00 -3.183492e-35
-5.550000e+00 -4.030535e-35
-5.540000e+00 -4.882672e-35
-5.530000e+00 -5.711751e-35
-5.520000e+00 -6.485773e-35
-5.510000e+00 -7.169393e-35
-5.500000e+00 -7.724627e-35
-5.490000e+00 -8.111767e-35
-5.480000e+00 -8.290518e-35
-5.470000e+00 -8.221344e-35
-5.460000e+00 -7.866999e-35
-5.450000e+00 -7.194226e-35
-5.440000e+00 -6.175600e-35
-5.430000e+00 -4.791446e-35
-5.420000e+00 -3.031796e-35
-5.410000e+00 -8.982983e-36
-5.400000e+00 1.593976e-35
-5.390000e+00 4.414928e-35
-5.380000e+00 7.518116e-35
-5.370000e+00 1.083982e-34
-5.360000e+00 1.429860e-34
-5.350000e+00 1.779539e-34
-5.340000e+00 2.121432e-34
-5.330000e+00 2.442419e-34
-5.320000e+00 2.728082e-34
-5.310000e+00 2.963019e-34
-5.300000e+00 3.131247e-34
-5.290000e+00 3.216690e-34
-5.280000e+00 3.203743e-34
-5.270000e+00 3.077915e-34
-5.260000e+00 2.826528e-34
-5.250000e+00 2.439463e-34
-5.240000e+00 1.909929e-34
-5.230000e+00 1.235230e-34
-5.220000e+00 4.175086e-35
-5.210000e+00 -5.355767e-35
-5.200000e+00 -1.610263e-34
-5.190000e+00 -2.786231e-34
-5.180000e+00 -4.036316e-34
-5.170000e+00 -5.326434e-34
-5.160000e+00 -6.615737e-34
-5.150000e+00 -7.857054e-34
-5.140000e+00 -8.997638e-34
-5.130000e+00 -9.980210e-34
-5.120000e+00 -1.074439e-33
-5.110000e+00 -1.122840e-33
-5.100000e+00 -1.137116e-33
-5.090000e+00 -1.111469e-33
-5.080000e+00 -1.040669e-33
-5.070000e+00 -9.203489e-34
-5.060000e+00 -7.472998e-34
-5.050000e+00 -5.197817e-34
-5.040000e+00 -2.378259e-34
-5.030000e+00 9.647837e-35
-5.020000e+00 4.787257e-34
-5.010000e+00 9.019811e-34
-5.000000e+00 1.356624e-33
-4.990000e+00 1.830269e-33
-4.980000e+00 2.307775e-33
-4.970000e+00 2.771358e-33
-4.960000e+00 3.200823e-33
-4.950000e+00 3.573929e-33
-4.940000e+00 3.866881e-33
-4.930000e+00 4.054980e-33
-4.920000e+00 4.113405e-33
-4.910000e+00 4.018139e-33
-4.900000e+00 3.747023e-33
-4.890000e+00 3.280918e-33
-4.880000e+00 2.604963e-33
-4.870000e+00 1.709884e-33
-4.860000e+00 5.933187e-34
-4.850000e+00 -7.388890e-34
-4.840000e+00 -2.271472e-33
-4.830000e+00 -3.978669e-33
-4.820000e+00 -5.823371e-33
-4.810000e+00 -7.756533e-33
-4.800000e+00 -9.716949e-33
-4.790000e+00 -1.163144e-32
-4.780000e+00 -1.341555e-32
-4.770000e+00 -1.497478e-32
-4.760000e+00 -1.620642e-32
-4.750000e+00 -1.700207e-32
-4.740000e+00 -1.725082e-32
-4.730000e+00 -1.684308e-32
-4.720000e+00 -1.567503e-32
-4.710000e+00 -1.365383e-32
-4.700000e+00 -1.070312e-32
-4.690000e+00 -6.769103e-33
-4.680000e+00 -1.826728e-33
-4.670000e+00 4.113957e-33
-4.660000e+00 1.100176e-32
-4.650000e+00 1.873868e-32
-4.640000e+00 2.717509e-32
-4.630000e+00 3.610590e-32
-4.620000e+00 4.526835e-32
-4.610000e+00 5.434137e-32
-4.600000e+00 6.294741e-32
-4.590000e+00 7.065654e-32
-4.580000e+00 7.699338e-32
-4.570000e+00 8.144743e-32
-4.560000e+00 8.348615e-32
-4.550000e+00 8.257192e-32
-4.540000e+00 7.818204e-32
-4.530000e+00 6.983186e-32
-4.520000e+00 5.710116e-32
-4.510000e+00 3.966246e-32
-4.500000e+00 1.731143e-32
-4.490000e+00 -1.000201e-32
-4.480000e+00 -4.214273e-32
-4.470000e+00 -7.876088e-32
-4.460000e+00 -1.192652e-31
-4.450000e+00 -1.628008e-31
-4.440000e+00 -2.082333e-31
-4.430000e+00 -2.541404e-31
-4.420000e+00 -2.988136e-31
-4.410000e+00 -3.402718e-31
-4.400000e+00 -3.762868e-31
-4.390000e+00 -4.044252e-31
-4.380000e+00 -4.221038e-31
-4.370000e+00 -4.266637e-31
-4.360000e+00 -4.154590e-31
-4.350000e+00 -3.859628e-31
-4.340000e+00 -3.358879e-31
-4.330000e+00 -2.633201e-31
-4.320000e+00 -1.668622e-31
-4.310000e+00 -4.578431e-32
-4.300000e+00 9.982499e-32
-4.290000e+00 2.689101e-31
-4.280000e+00 4.593113e-31
-4.270000e+00 6.676463e-31
-4.260000e+00 8.892146e-31
-4.250000e+00 1.117941e-30
-4.240000e+00 1.346355e-30
-4.230000e+00 1.565631e-30
-4.220000e+00 1.765674e-30
-4.210000e+00 1.935286e-30
-4.200000e+00 2.062397e-30
-4.190000e+00 2.134367e-30
-4.180000e+00 2.138379e-30
-4.170000e+00 2.061893e-30
-4.160000e+00 1.893179e-30
-4.150000e+00 1.621920e-30
-4.140000e+00 1.239858e-30
-4.130000e+00 7.414734e-31
-4.120000e+00 1.246964e-31
-4.110000e+00 -6.084067e-31
-4.100000e+00 -1.450977e-30
-4.090000e+00 -2.390769e-30
-4.080000e+00 -3.409681e-30
-4.070000e+00 -4.483394e-30
-4.060000e+00 -5.581223e-30
-4.050000e+00 -6.666157e-30
-4.040000e+00 -7.695161e-30
-4.030000e+00 -8.619764e-30
-4.020000e+00 -9.386955e-30
-4.010000e+00 -9.940392e-30
-4.000000e+00 -1.022199e-29
-3.990000e+00 -1.017378e-29
-3.980000e+00 -9.740145e-30
-3.970000e+00 -8.870323e-30
-3.960000e+00 -7.521162e-30
-3.950000e+00 -5.660024e-30
-3.940000e+00 -3.267827e-30
-3.930000e+00 -3.420642e-31
-3.920000e+00 3.100295e-30
-3.910000e+00 7.020150e-30
-3.900000e+00 1.135400e-29
-3.890000e+00 1.601222e-29
-3.880000e+00 2.087806e-29
-3.870000e+00 2.580743e-29
-3.860000e+00 3.062978e-29
-3.850000e+00 3.514999e-29
-3.840000e+00 3.915168e-29
-3.830000e+00 4.240166e-29
-3.820000e+00 4.465585e-29
-3.810000e+00 4.566662e-29
-3.800000e+00 4.519134e-29
-3.790000e+00 4.300224e-29
-3.780000e+00 3.889724e-29
-3.770000e+00 3.271162e-29
-3.760000e+00 2.433017e-29
-3.750000e+00 1.369942e-29
-3.740000e+00 8.396281e-31
-3.730000e+00 -1.414423e-29
-3.720000e+00 -3.105267e-29
-3.710000e+00 -4.958398e-29
-3.700000e+00 -6.932911e-29
-3.690000e+00 -8.976957e-29
-3.680000e+00 -1.102791e-28
-3.670000e+00 -1.301297e-28
-3.660000e+00 -1.485025e-28
-3.650000e+00 -1.645030e-28
-3.640000e+00 -1.771825e-28
-3.630000e+00 -1.855638e-28
-3.620000e+00 -1.886730e-28
-3.610000e+00 -1.855750e-28
-3.600000e+00 -1.754140e-28
-3.590000e+00 -1.574570e-28
-3.580000e+00 -1.311388e-28
-3.570000e+00 -9.610900e-29
-3.560000e+00 -5.227712e-29
-3.550000e+00 1.442203e-31
-3.540000e+00 6.060107e-29
-3.530000e+00 1.281662e-28
-3.520000e+00 2.015166e-28
-3.510000e+00 2.789215e-28
-3.500000e+00 3.582435e-28
-3.490000e+00 4.369553e-28
-3.480000e+00 5.121724e-28
-3.470000e+00 5.807040e-28
-3.460000e+00 6.391230e-28
-3.450000e+00 6.838541e-28
-3.440000e+00 7.112810e-28
-3.430000e+00 7.178718e-28
-3.420000e+00 7.003162e-28
-3.410000e+00 6.556795e-28
-3.400000e+00 5.815626e-28
-3.390000e+00 4.762664e-28
-3.380000e+00 3.389550e-28
-3.370000e+00 1.698114e-28
-3.360000e+00 -2.982127e-29
-3.350000e+00 -2.573199e-28
-3.340000e+00 -5.086913e-28
-3.330000e+00 -7.785168e-28
-3.320000e+00 -1.059943e-27
-3.310000e+00 -1.344722e-27
-3.300000e+00 -1.623306e-27
-3.290000e+00 -1.885005e-27
-3.280000e+00 -2.118205e-27
-3.270000e+00 -2.310654e-27
-3.260000e+00 -2.449811e-27
-3.250000e+00 -2.523252e-27
-3.240000e+00 -2.519130e-27
-3.230000e+00 -2.426681e-27
-3.220000e+00 -2.236760e-27
-3.210000e+00 -1.942397e-27
-3.200000e+00 -1.539349e-27
-3.190000e+00 -1.026627e-27
-3.180000e+00 -4.069972e-28
-3.170000e+00 3.126049e-28
-3.160000e+00 1.120740e-27
-3.150000e+00 2.001245e-27
-3.140000e+00 2.933160e-27
-3.130000e+00 3.890810e-27
-3.120000e+00 4.844066e-27
-3.110000e+00 5.758808e-27
-3.100000e+00 6.597594e-27
-3.090000e+00 7.320531e-27
-3.080000e+00 7.886356e-27
-3.070000e+00 8.253725e-27
-3.060000e+00 8.382666e-27
-3.050000e+00 8.236188e-27
-3.040000e+00 7.782002e-27
-3.030000e+00 6.994301e-27
-3.020000e+00 5.855571e-27
-3.010000e+00 4.358322e-27
-3.000000e+00 2.506714e-27
-2.990000e+00 3.179873e-28
-2.980000e+00 -2.176383e-27
-2.970000e+00 -4.929888e-27
-2.960000e+00 -7.880599e-27
-2.950000e+00 -1.095131e-26
-2.940000e+00 -1.405020e-26
-2.930000e+00 -1.707210e-26
-2.920000e+00 -1.990047e-26
-2.910000e+00 -2.241000e-26
-2.900000e+00 -2.446981e-26
-2.890000e+00 -2.594737e-26
-2.880000e+00 -2.671294e-26
-2.870000e+00 -2.664455e-26
-2.860000e+00 -2.563326e-26
-2.850000e+00 -2.358881e-26
-2.840000e+00 -2.044520e-26
-2.830000e+00 -1.616629e-26
-2.820000e+00 -1.075094e-26
-2.810000e+00 -4.237740e-27
-2.800000e+00 3.291154e-27
-2.790000e+00 1.170713e-26
-2.780000e+00 2.083356e-26
-2.770000e+00 3.044562e-26
-2.760000e+00 4.027191e-26
-2.750000e+00 4.999776e-26
-2.740000e+00 5.927071e-26
-2.730000e+00 6.770767e-26
-2.720000e+00 7.490441e-26
-2.710000e+00 8.044696e-26
-2.700000e+00 8.392463e-26
-2.690000e+00 8.494470e-26
-2.680000e+00 8.314856e-26
-2.670000e+00 7.822840e-26
-2.660000e+00 6.994463e-26
-2.650000e+00 5.814278e-26
-2.640000e+00 4.277002e-26
-2.630000e+00 2.388989e-26
-2.620000e+00 1.695232e-27
-2.610000e+00 -2.348202e-26
-2.600000e+00 -5.116438e-26
-2.590000e+00 -8.072668e-26
-2.580000e+00 -1.113987e-25
-2.570000e+00 -1.422732e-25
-2.560000e+00 -1.723195e-25
-2.550000e+00 -2.004033e-25
-2.540000e+00 -2.253122e-25
-2.530000e+00 -2.457875e-25
-2.520000e+00 -2.605613e-25
-2.510000e+00 -2.683981e-25
-2.500000e+00 -2.681421e-25
-2.490000e+00 -2.587654e-25
-2.480000e+00 -2.394196e-25
-2.470000e+00 -2.094868e-25
-2.460000e+00 -1.686294e-25
-2.450000e+00 -1.168367e-25
-2.440000e+00 -5.446523e-26
-2.430000e+00 1.772720e-26
-2.420000e+00 9.855777e-26
-2.410000e+00 1.864059e-25
-2.400000e+00 2.792144e-25
-2.390000e+00 3.745041e-25
-2.380000e+00 4.694068e-25
-2.370000e+00 5.607127e-25
-2.360000e+00 6.449379e-25
-2.350000e+00 7.184059e-25
-2.340000e+00 7.773488e-25
-2.330000e+00 8.180214e-25
-2.320000e+00 8.368296e-25
-2.310000e+00 8.304679e-25
-2.300000e+00 7.960651e-25
-2.290000e+00 7.313304e-25
-2.280000e+00 6.347016e-25
-2.270000e+00 5.054813e-25
-2.260000e+00 3.439650e-25
-2.250000e+00 1.515479e-25
-2.240000e+00 -6.919052e-26
-2.230000e+00 -3.144320e-25
-2.220000e+00 -5.790999e-25
-2.210000e+00 -8.568794e-25
-2.200000e+00 -1.140281e-24
-2.190000e+00 -1.420749e-24
-2.180000e+00 -1.688823e-24
-2.170000e+00 -1.934339e-24
-2.160000e+00 -2.146687e-24
-2.150000e+00 -2.315108e-24
-2.140000e+00 -2.429030e-24
-2.130000e+00 -2.478437e-24
-2.120000e+00 -2.454261e-24
-2.110000e+00 -2.348794e-24
-2.100000e+00 -2.156087e-24
-2.090000e+00 -1.872356e-24
-2.080000e+00 -1.496346e-24
-2.070000e+00 -1.029664e-24
-2.060000e+00 -4.770437e-25
-2.050000e+00 1.534495e-25
-2.040000e+00 8.503106e-25
-2.030000e+00 1.598584e-24
-2.020000e+00 2.379965e-24
-2.010000e+00 3.173027e-24
-2.000000e+00 3.953572e-24
-1.990000e+00 4.695114e-24
-1.980000e+00 5.369491e-24
-1.970000e+00 5.947604e-24
-1.960000e+00 6.400260e-24
-1.950000e+00 6.699125e-24
-1.940000e+00 6.817743e-24
-1.930000e+00 6.732611e-24
-1.920000e+00 6.424272e-24
-1.910000e+00 5.878400e-24
-1.900000e+00 5.086839e-24
-1.890000e+00 4.048533e-24
-1.880000e+00 2.770357e-24
-1.870000e+00 1.267752e-24
-1.860000e+00 -4.348514e-25
-1.850000e+00 -2.303843e-24
-1.840000e+00 -4.296538e-24
-1.830000e+00 -6.361591e-24
-1.820000e+00 -8.439736e-24
-1.810000e+00 -1.046488e-23
-1.800000e+00 -1.236553e-23
-1.790000e+00 -1.406654e-23
-1.780000e+00 -1.549125e-23
-1.770000e+00 -1.656376e-23
-1.760000e+00 -1.721158e-23
-1.750000e+00 -1.736840e-23
-1.740000e+00 -1.697689e-23
-1.730000e+00 -1.599163e-23
-1.720000e+00 -1.438189e-23
-1.710000e+00 -1.213424e-23
-1.700000e+00 -9.254913e-24
-1.690000e+00 -5.771700e-24
-1.680000e+00 -1.735418e-24
-1.670000e+00 2.779261e-24
-1.660000e+00 7.673667e-24
-1.650000e+00 1.282579e-23
-1.640000e+00 1.809173e-23
-1.630000e+00 2.330813e-23
-1.620000e+00 2.829536e-23
-1.610000e+00 3.286179e-23
-1.600000e+00 3.680876e-23
-1.590000e+00 3.993641e-23
-1.580000e+00 4.205021e-23
-1.570000e+00 4.296799e-23
-1.560000e+00 4.252736e-23
-1.550000e+00 4.059329e-23
-1.540000e+00 3.706575e-23
-1.530000e+00 3.188678e-23
-1.520000e+00 2.504724e-23
-1.510000e+00 1.659252e-23
-1.500000e+00 6.627230e-24
-1.490000e+00 -4.681704e-24
-1.480000e+00 -1.710343e-23
-1.470000e+00 -3.034367e-23
-1.460000e+00 -4.404722e-23
-1.450000e+00 -5.780287e-23
-1.440000e+00 -7.115051e-23
-1.430000e+00 -8.359086e-23
-1.420000e+00 -9.459733e-23
-1.410000e+00 -1.036304e-22
-1.400000e+00 -1.101538e-22
-1.390000e+00 -1.136523e-22
-1.380000e+00 -1.136514e-22
-1.370000e+00 -1.097373e-22
-1.360000e+00 -1.015773e-22
-1.350000e+00 -8.894029e-23
-1.340000e+00 -7.171575e-23
-1.330000e+00 -4.993132e-23
-1.320000e+00 -2.376766e-23
-1.310000e+00 6.429236e-24
-1.300000e+00 4.014074e-23
-1.290000e+00 7.667202e-23
-1.280000e+00 1.151541e-22
-1.270000e+00 1.545517e-22
-1.260000e+00 1.936771e-22
-1.250000e+00 2.312107e-22
-1.240000e+00 2.657275e-22
-1.230000e+00 2.957307e-22
-1.220000e+00 3.196910e-22
-1.210000e+00 3.360907e-22
-1.200000e+00 3.434737e-22
-1.190000e+00 3.404985e-22
-1.180000e+00 3.259931e-22
-1.170000e+00 2.990121e-22
-1.160000e+00 2.588920e-22
-1.150000e+00 2.053045e-22
-1.140000e+00 1.383057e-22
-1.130000e+00 5.837805e-23
-1.120000e+00 -3.353474e-23
-1.110000e+00 -1.360048e-22
-1.100000e+00 -2.471072e-22
-1.090000e+00 -3.644240e-22
-1.080000e+00 -4.850596e-22
-1.070000e+00 -6.056765e-22
-1.060000e+00 -7.225454e-22
-1.050000e+00 -8.316141e-22
-1.040000e+00 -9.285935e-22
-1.030000e+00 -1.009061e-21
-1.020000e+00 -1.068576e-21
-1.010000e+00 -1.102816e-21
-1.000000e+00 -1.107713e-21
-9.900002e-01 -1.079611e-21
-9.800000e-01 -1.015414e-21
-9.700003e-01 -9.127457e-22
-9.600000e-01 -7.700984e-22
-9.500003e-01 -5.869751e-22
-9.400001e-01 -3.640169e-22
-9.300003e-01 -1.031100e-22
-9.200001e-01 1.925311e-22
-9.100003e-01 5.183099e-22
-9.000001e-01 8.682292e-22
-8.900003e-01 1.234913e-21
-8.800001e-01 1.609665e-21
-8.700004e-01 1.982580e-21
-8.600001e-01 2.342693e-21
-8.500004e-01 2.678179e-21
-8.400002e-01 2.976601e-21
-8.299999e-01 3.225197e-21
-8.200002e-01 3.411207e-21
-8.099999e-01 3.522237e-21
-8.000002e-01 3.546653e-21
-7.900000e-01 3.473983e-21
-7.800002e-01 3.295342e-21
-7.700000e-01 3.003850e-21
-7.600002e-01 2.595034e-21
-7.500000e-01 2.067212e-21
-7.400002e-01 1.421832e-21
-7.300000e-01 6.637583e-22
-7.200003e-01 -1.985037e-22
-7.100000e-01 -1.152659e-21
-7.000003e-01 -2.182576e-21
-6.900001e-01 -3.268324e-21
-6.800003e-01 -4.386336e-21
-6.700001e-01 -5.509672e-21
-6.600003e-01 -6.608413e-21
-6.500001e-01 -7.650168e-21
-6.400003e-01 -8.600708e-21
-6.300001e-01 -9.424701e-21
-6.200004e-01 -1.008656e-20
-6.100001e-01 -1.055138e-20
-6.000004e-01 -1.078592e-20
-5.900002e-01 -1.075973e-20
-5.800004e-01 -1.044616e-20
-5.700002e-01 -9.823501e-21
-5.599999e-01 -8.876061e-21
-5.500002e-01 -7.595150e-21
-5.400000e-01 -5.980014e-21
-5.300002e-01 -4.038633e-21
-5.200000e-01 -1.788372e-21
-5.100002e-01 7.435695e-22
-5.000000e-01 3.519916e-21
-4.900002e-01 6.493318e-21
-4.800000e-01 9.606611e-21
-4.700003e-01 1.279337e-20
-4.600000e-01 1.597877e-20
-4.500003e-01 1.908069e-20
-4.400001e-01 2.201120e-20
-4.300003e-01 2.467824e-20
-4.200001e-01 2.698764e-20
-4.100003e-01 2.884532e-20
-4.000001e-01 3.015979e-20
-3.900003e-01 3.084462e-20
-3.800001e-01 3.082125e-20
-3.700004e-01 3.002164e-20
-3.600001e-01 2.839104e-20
-3.500004e-01 2.589055e-20
-3.400002e-01 2.249961e-20
-3.300004e-01 1.821818e-20
-3.200002e-01 1.306863e-20
-3.099999e-01 7.097153e-21
-3.000002e-01 3.748390e-22
-2.900000e-01 -7.001938e-21
-2.800002e-01 -1.491163e-20
-2.700000e-01 -2.320832e-20
-2.600002e-01 -3.172321e-20
-2.500000e-01 -4.026675e-20
-2.400002e-01 -4.863158e-20
-2.300000e-01 -5.659612e-20
-2.200003e-01 -6.392871e-20
-2.100000e-01 -7.039260e-20
-2.000003e-01 -7.575127e-20
-1.900001e-01 -7.977433e-20
-1.800003e-01 -8.224363e-20
-1.700001e-01 -8.295980e-20
-1.600003e-01 -8.174867e-20
-1.500001e-01 -7.846772e-20
-1.400003e-01 -7.301227e-20
-1.300001e-01 -6.532112e-20
-1.200004e-01 -5.538198e-20
-1.100001e-01 -4.323562e-20
-1.000004e-01 -2.897953e-20
-9.000015e-02 -1.277019e-20
-8.000040e-02 5.175739e-21
-7.000017e-02 2.458162e-20
-5.999994e-02 4.511258e-20
-5.000019e-02 6.637874e-20
-3.999996e-02 8.794003e-20
-3.000021e-02 1.093127e-19
-1.999998e-02 1.299770e-19
-1.000023e-02 1.493873e-19
0.000000e+00 1.669824e-19
1.000023e-02 1.821977e-19
1.999950e-02 1.944785e-19
2.999973e-02 2.032941e-19
3.999996e-02 2.081517e-19
5.000019e-02 2.086117e-19
5.999947e-02 2.043017e-19
6.999969e-02 1.949309e-19
7.999992e-02 1.803035e-19
9.000015e-02 1.603300e-19
9.999943e-02 1.350383e-19
1.099997e-01 1.045821e-19
1.199999e-01 6.924653e-20
1.300001e-01 2.945205e-20
1.399994e-01 -1.424491e-20
1.499996e-01 -6.115484e-20
1.599998e-01 -1.104606e-19
1.700001e-01 -1.612269e-19
1.799994e-01 -2.124131e-19
1.899996e-01 -2.628888e-19
1.999998e-01 -3.114538e-19
2.100000e-01 -3.568601e-19
2.200003e-01 -3.978371e-19
2.299995e-01 -4.331191e-19
2.399998e-01 -4.614744e-19
2.500000e-01 -4.817365e-19
2.600002e-01 -4.928352e-19
2.699995e-01 -4.938280e-19
2.799997e-01 -4.839303e-19
2.900000e-01 -4.625464e-19
3.000002e-01 -4.292945e-19
3.099995e-01 -3.840321e-19
3.199997e-01 -3.268760e-19
3.299999e-01 -2.582179e-19
3.400002e-01 -1.787354e-19
3.499994e-01 -8.939663e-20
3.599997e-01 8.540676e-21
3.699999e-01 1.135375e-19
3.800001e-01 2.237885e-19
3.899994e-01 3.372436e-19
3.999996e-01 4.516372e-19
4.099998e-01 5.645239e-19
4.200001e-01 6.733210e-19
4.299994e-01 7.753562e-19
4.399996e-01 8.679213e-19
4.499998e-01 9.483303e-19
4.600000e-01 1.013980e-18
4.700003e-01 1.062415e-18
4.799995e-01 1.091388e-18
4.899998e-01 1.098928e-18
5.000000e-01 1.083402e-18
5.100002e-01 1.043569e-18
5.199995e-01 9.786375e-19
5.299997e-01 8.883113e-19
5.400000e-01 7.728278e-19
5.500002e-01 6.329884e-19
5.599995e-01 4.701768e-19
5.699997e-01 2.863661e-19
5.799999e-01 8.411392e-20
5.900002e-01 -1.334565e-19
5.999994e-01 -3.626884e-19
6.099997e-01 -5.994387e-19
6.199999e-01 -8.391359e-19
6.300001e-01 -1.076856e-18
6.399994e-01 -1.307402e-18
6.499996e-01 -1.525410e-18
6.599998e-01 -1.725444e-18
6.700001e-01 -1.902120e-18
6.799994e-01 -2.050219e-18
6.899996e-01 -2.164815e-18
6.999998e-01 -2.241396e-18
7.100000e-01 -2.275994e-18
7.200003e-01 -2.265293e-18
7.299995e-01 -2.206751e-18
7.399998e-01 -2.098693e-18
7.500000e-01 -1.940405e-18
7.600002e-01 -1.732202e-18
7.699995e-01 -1.475486e-18
7.799997e-01 -1.172774e-18
7.900000e-01 -8.277123e-19
8.000002e-01 -4.450629e-19
8.099995e-01 -3.066581e-20
8.199997e-01 4.086282e-19
8.299999e-01 8.650438e-19
8.400002e-01 1.330001e-18
8.499994e-01 1.794249e-18
8.599997e-01 2.248034e-18
8.699999e-01 2.681279e-18
8.800001e-01 3.083784e-18
8.899994e-01 3.445437e-18
8.999996e-01 3.756442e-18
9.099998e-01 4.007547e-18
9.200001e-01 4.190269e-18
9.299994e-01 4.297131e-18
9.399996e-01 4.321863e-18
9.499998e-01 4.259617e-18
9.600000e-01 4.107140e-18
9.700003e-01 3.862932e-18
9.799995e-01 3.527379e-18
9.899998e-01 3.102828e-18
1.000000e+00 2.593659e-18
1.010000e+00 2.006284e-18
1.020000e+00 1.349112e-18
1.030000e+00 6.324811e-19
1.040000e+00 -1.314835e-19
1.050000e+00 -9.290295e-19
1.059999e+00 -1.745003e-18
1.070000e+00 -2.563108e-18
1.080000e+00 -3.366207e-18
1.090000e+00 -4.136657e-18
1.099999e+00 -4.856677e-18
1.110000e+00 -5.508728e-18
1.120000e+00 -6.075928e-18
1.130000e+00 -6.542444e-18
1.139999e+00 -6.893916e-18
1.150000e+00 -7.117845e-18
1.160000e+00 -7.203962e-18
1.170000e+00 -7.144579e-18
1.179999e+00 -6.934896e-18
1.190000e+00 -6.573235e-18
1.200000e+00 -6.061256e-18
1.210000e+00 -5.404069e-18
1.220000e+00 -4.610299e-18
1.230000e+00 -3.692064e-18
1.240000e+00 -2.664860e-18
1.250000e+00 -1.547371e-18
1.260000e+00 -3.612042e-19
1.270000e+00 8.694851e-19
1.280000e+00 2.118422e-18
1.290000e+00 3.357738e-18
1.300000e+00 4.558543e-18
1.309999e+00 5.691573e-18
1.320000e+00 6.727882e-18
1.330000e+00 7.639551e-18
1.340000e+00 8.400437e-18
1.349999e+00 8.986882e-18
1.360000e+00 9.378489e-18
1.370000e+00 9.558744e-18
1.380000e+00 9.515696e-18
1.389999e+00 9.242507e-18
1.400000e+00 8.737896e-18
1.410000e+00 8.006526e-18
1.420000e+00 7.059227e-18
1.429999e+00 5.913101e-18
1.440000e+00 4.591450e-18
1.450000e+00 3.123577e-18
1.460000e+00 1.544384e-18
1.469999e+00 -1.061593e-19
1.480000e+00 -1.783749e-18
1.490000e+00 -3.440640e-18
1.500000e+00 -5.026665e-18
1.510000e+00 -6.490432e-18
1.520000e+00 -7.780606e-18
1.530000e+00 -8.847315e-18
1.540000e+00 -9.643626e-18
1.550000e+00 -1.012706e-17
1.559999e+00 -1.026111e-17
1.570000e+00 -1.001664e-17
1.580000e+00 -9.373470e-18
1.590000e+00 -8.321495e-18
1.599999e+00 -6.862028e-18
1.610000e+00 -5.008515e-18
1.620000e+00 -2.787476e-18
1.630000e+00 -2.388225e-19
1.639999e+00 2.584006e-18
1.650000e+00 5.614239e-18
1.660000e+00 8.772354e-18
1.670000e+00 1.196706e-17
1.679999e+00 1.509664e-17
1.690000e+00 1.805076e-17
1.700000e+00 2.071261e-17
1.710000e+00 2.296143e-17
1.719999e+00 2.467545e-17
1.730000e+00 2.573502e-17
1.740000e+00 2.602616e-17
1.750000e+00 2.544419e-17
1.760000e+00 2.389748e-17
1.770000e+00 2.131139e-17
1.780000e+00 1.763198e-17
1.790000e+00 1.282975e-17
1.800000e+00 6.902973e-18
1.809999e+00 -1.191448e-19
1.820000e+00 -8.173891e-18
1.830000e+00 -1.716315e-17
1.840000e+00 -2.695180e-17
1.849999e+00 -3.736754e-17
1.860000e+00 -4.820084e-17
1.870000e+00 -5.920650e-17
1.880000e+00 -7.010586e-17
1.889999e+00 -8.059027e-17
1.900000e+00 -9.032557e-17
1.910000e+00 -9.895775e-17
1.920000e+00 -1.061197e-16
1.929999e+00 -1.114390e-16
1.940000e+00 -1.145466e-16
1.950000e+00 -1.150864e-16
1.960000e+00 -1.127259e-16
1.969999e+00 -1.071665e-16
1.980000e+00 -9.815508e-17
1.990000e+00 -8.549524e-17
2.000000e+00 -6.905838e-17
2.010000e+00 -4.879428e-17
2.020000e+00 -2.474114e-17
2.030000e+00 2.965518e-18
2.040000e+00 3.408539e-17
2.050000e+00 6.826769e-17
2.059999e+00 1.050476e-16
2.070000e+00 1.438444e-16
2.080000e+00 1.839633e-16
2.090000e+00 2.245989e-16
2.099999e+00 2.648430e-16
2.110000e+00 3.036945e-16
2.120000e+00 3.400729e-16
2.130000e+00 3.728363e-16
2.139999e+00 4.008005e-16
2.150000e+00 4.227631e-16
2.160000e+00 4.375296e-16
2.170000e+00 4.439424e-16
2.179999e+00 4.409122e-16
2.190000e+00 4.274500e-16
2.200000e+00 4.027016e-16
2.210000e+00 3.659820e-16
2.219999e+00 3.168088e-16
2.230000e+00 2.549347e-16
2.240000e+00 1.803794e-16
2.250000e+00 9.345555e-17
2.260000e+00 -5.206566e-18
2.270000e+00 -1.146408e-16
2.280000e+00 -2.335316e-16
2.290000e+00 -3.602098e-16
2.300000e+00 -4.926516e-16
2.309999e+00 -6.284904e-16
2.320000e+00 -7.650348e-16
2.330000e+00 -8.992966e-16
2.340000e+00 -1.028030e-15
2.349999e+00 -1.147776e-15
2.360000e+00 -1.254925e-15
2.370000e+00 -1.345779e-15
2.380000e+00 -1.416628e-15
2.389999e+00 -1.463832e-15
2.400000e+00 -1.483916e-15
2.410000e+00 -1.473657e-15
2.420000e+00 -1.430190e-15
2.429999e+00 -1.351100e-15
2.440000e+00 -1.234531e-15
2.450000e+00 -1.079274e-15
2.460000e+00 -8.848646e-16
2.469999e+00 -6.516626e-16
2.480000e+00 -3.809269e-16
2.490000e+00 -7.487321e-17
2.500000e+00 2.632825e-16
2.510000e+00 6.292969e-16
2.520000e+00 1.017899e-15
2.530000e+00 1.422805e-15
2.540000e+00 1.836768e-15
2.550000e+00 2.251643e-15
2.559999e+00 2.658480e-15
2.570000e+00 3.047658e-15
2.580000e+00 3.409027e-15
2.590000e+00 3.732087e-15
2.599999e+00 4.006191e-15
2.610000e+00 4.220764e-15
2.620000e+00 4.365549e-15
2.630000e+00 4.430857e-15
2.639999e+00 4.407847e-15
2.650000e+00 4.288787e-15
2.660000e+00 4.067335e-15
2.670000e+00 3.738800e-15
2.679999e+00 3.300407e-15
2.690000e+00 2.751520e-15
2.700000e+00 2.093855e-15
2.710000e+00 1.331657e-15
2.719999e+00 4.718281e-16
2.730000e+00 -4.759850e-16
2.740000e+00 -1.499358e-15
2.750000e+00 -2.583119e-15
2.760000e+00 -3.709436e-15
2.770000e+00 -4.857974e-15
2.780000e+00 -6.006126e-15
2.790000e+00 -7.129309e-15
2.800000e+00 -8.201329e-15
2.809999e+00 -9.194817e-15
2.820000e+00 -1.008173e-14
2.830000e+00 -1.083390e-14
2.840000e+00 -1.142365e-14
2.849999e+00 -1.182443e-14
2.860000e+00 -1.201149e-14
2.870000e+00 -1.196260e-14
2.880000e+00 -1.165872e-14
2.889999e+00 -1.108468e-14
2.900000e+00 -1.022988e-14
2.910000e+00 -9.088831e-15
2.920000e+00 -7.661770e-15
2.929999e+00 -5.955075e-15
2.940000e+00 -3.981671e-15
2.950000e+00 -1.761264e-15
2.960000e+00 6.795211e-16
2.969999e+00 3.307163e-15
2.980000e+00 6.081403e-15
2.990000e+00 8.955574e-15
3.000000e+00 1.187711e-14
3.010000e+00 1.478818e-14
3.020000e+00 1.762656e-14
3.030000e+00 2.032659e-14