-8.000000e+00 0.000000e+00
-7.950000e+00 0.000000e+00
-7.900000e+00 0.000000e+00
-7.850000e+00 0.000000e+00
-7.800000e+00 -2.061538e-15
-7.750000e+00 -7.445570e-15
-7.700000e+00 -8.798628e-15
-7.650000e+00 -1.072210e-15
-7.600000e+00 -1.078111e-14
-7.550000e+00 -7.014075e-14
-7.500000e+00 -9.662740e-14
-7.450000e+00 1.403921e-13
-7.400000e+00 6.870535e-13
-7.350000e+00 8.857860e-13
-7.300000e+00 -4.304102e-13
-7.250000e+00 -3.361256e-12
-7.200000e+00 -5.170810e-12
-7.150000e+00 -1.314106e-12
-7.100000e+00 9.286067e-12
-7.050000e+00 1.874994e-11
-7.000000e+00 1.276478e-11
-6.950000e+00 -1.533757e-11
-6.900000e+00 -4.906277e-11
-6.850000e+00 -5.167495e-11
-6.800000e+00 2.930190e-12
-6.750000e+00 9.169174e-11
-6.700000e+00 1.387520e-10
-6.650000e+00 7.118301e-11
-6.600000e+00 -9.946927e-11
-6.550000e+00 -2.506805e-10
-6.500000e+00 -2.324291e-10
-6.450000e+00 -1.323128e-11
-6.400000e+00 2.502722e-10
-6.350000e+00 3.270726e-10
-6.300000e+00 1.454416e-10
-6.250000e+00 -8.271734e-11
-6.200000e+00 -3.981307e-11
-6.150000e+00 3.052159e-10
-6.100000e+00 4.792746e-10
-6.050000e+00 -1.709716e-10
-6.000000e+00 -1.708173e-09
-5.950000e+00 -3.051751e-09
-5.900000e+00 -2.402949e-09
-5.850000e+00 1.279502e-09
-5.800000e+00 6.740284e-09
-5.750000e+00 1.030779e-08
-5.700000e+00 7.917204e-09
-5.650000e+00 -1.695595e-09
-5.600000e+00 -1.493318e-08
-5.550000e+00 -2.438545e-08
-5.500000e+00 -2.289861e-08
-5.450000e+00 -8.210921e-09
-5.400000e+00 1.503079e-08
-5.350000e+00 3.738734e-08
-5.300000e+00 4.949031e-08
-5.250000e+00 4.640110e-08
-5.200000e+00 2.883034e-08
-5.150000e+00 1.053310e-09
-5.100000e+00 -3.244783e-08
-5.050000e+00 -6.936442e-08
-5.000000e+00 -1.102486e-07
-4.950000e+00 -1.582881e-07
-4.900000e+00 -2.189460e-07
-4.850000e+00 -2.991078e-07
-4.800000e+00 -4.048660e-07
-4.750000e+00 -5.382884e-07
-4.700000e+00 -6.954383e-07
-4.650000e+00 -8.681761e-07
-4.600000e+00 -1.049747e-06
-4.550000e+00 -1.240608e-06
-4.500000e+00 -1.449842e-06
-4.450000e+00 -1.690657e-06
-4.400000e+00 -1.973612e-06
-4.350000e+00 -2.303698e-06
-4.300000e+00 -2.684290e-06
-4.250000e+00 -3.124524e-06
-4.200000e+00 -3.642697e-06
-4.150000e+00 -4.261150e-06
-4.100000e+00 -4.995915e-06
-4.050000e+00 -5.850084e-06
-4.000000e+00 -6.817895e-06
-3.950000e+00 -7.897534e-06
-3.900000e+00 -9.102863e-06
-3.850000e+00 -1.046481e-05
-3.800000e+00 -1.202216e-05
-3.750000e+00 -1.381085e-05
-3.700000e+00 -1.586168e-05
-3.650000e+00 -1.820747e-05
-3.600000e+00 -2.089072e-05
-3.550000e+00 -2.396160e-05
-3.500000e+00 -2.746639e-05
-3.450000e+00 -3.143731e-05
-3.400000e+00 -3.589719e-05
-3.350000e+00 -4.087959e-05
-3.300000e+00 -4.645054e-05
-3.250000e+00 -5.271339e-05
-3.200000e+00 -5.979049e-05
-3.150000e+00 -6.779548e-05
-3.100000e+00 -7.681805e-05
-3.050000e+00 -8.693363e-05
-3.000000e+00 -9.823003e-05
-2.950000e+00 -1.108277e-04
-2.900000e+00 -1.248784e-04
-2.850000e+00 -1.405462e-04
-2.800000e+00 -1.579891e-04
-2.750000e+00 -1.773600e-04
-2.700000e+00 -1.988260e-04
-2.650000e+00 -2.225861e-04
-2.600000e+00 -2.488715e-04
-2.550000e+00 -2.779293e-04
-2.500000e+00 -3.100050e-04
-2.450000e+00 -3.453426e-04
-2.400000e+00 -3.842018e-04
-2.350000e+00 -4.268782e-04
-2.300000e+00 -4.737036e-04
-2.250000e+00 -5.250304e-04
-2.200000e+00 -5.812105e-04
-2.150000e+00 -6.425923e-04
-2.100000e+00 -7.095374e-04
-2.050000e+00 -7.824409e-04
-2.000000e+00 -8.617375e-04
-1.950000e+00 -9.478860e-04
-1.900000e+00 -1.041347e-03
-1.850000e+00 -1.142575e-03
-1.800000e+00 -1.252030e-03
-1.750000e+00 -1.370191e-03
-1.700000e+00 -1.497568e-03
-1.650000e+00 -1.634681e-03
-1.600000e+00 -1.782043e-03
-1.550000e+00 -1.940152e-03
-1.500000e+00 -2.109494e-03
-1.450000e+00 -2.290563e-03
-1.400000e+00 -2.483864e-03
-1.350000e+00 -2.689897e-03
-1.300000e+00 -2.909132e-03
-1.250000e+00 -3.142005e-03
-1.200000e+00 -3.388915e-03
-1.150000e+00 -3.650242e-03
-1.100000e+00 -3.926348e-03
-1.050000e+00 -4.217555e-03
-1.000000e+00 -4.524119e-03
-9.499998e-01 -4.846215e-03
-9.000001e-01 -5.183951e-03
-8.499999e-01 -5.537375e-03
-7.999997e-01 -5.906477e-03
-7.500000e-01 -6.291174e-03
-6.999998e-01 -6.691272e-03
-6.500001e-01 -7.106453e-03
-5.999999e-01 -7.536278e-03
-5.499997e-01 -7.980209e-03
-5.000000e-01 -8.437618e-03
-4.499998e-01 -8.907756e-03
-4.000001e-01 -9.389722e-03
-3.499999e-01 -9.882455e-03
-2.999997e-01 -1.038472e-02
-2.500000e-01 -1.089515e-02
-1.999998e-01 -1.141223e-02
-1.500001e-01 -1.193433e-02
-9.999990e-02 -1.245965e-02
-4.999971e-02 -1.298619e-02
0.000000e+00 -1.351178e-02
5.000019e-02 -1.403405e-02
1.000004e-01 -1.455051e-02
1.500006e-01 -1.505855e-02
1.999998e-01 -1.555537e-02
2.500000e-01 -1.603805e-02
3.000002e-01 -1.650345e-02
3.500004e-01 -1.694831e-02
4.000006e-01 -1.736923e-02
4.499998e-01 -1.776275e-02
5.000000e-01 -1.812529e-02
5.500002e-01 -1.845323e-02
6.000004e-01 -1.874281e-02
6.500006e-01 -1.899020e-02
6.999998e-01 -1.919158e-02
7.500000e-01 -1.934303e-02
8.000002e-01 -1.944072e-02
8.500004e-01 -1.948084e-02
9.000006e-01 -1.945960e-02
9.499998e-01 -1.937328e-02
1.000000e+00 -1.921825e-02
1.050000e+00 -1.899100e-02
1.100000e+00 -1.868819e-02
1.150001e+00 -1.830665e-02
1.200000e+00 -1.784346e-02
1.250000e+00 -1.729590e-02
1.300000e+00 -1.666150e-02
1.350000e+00 -1.593807e-02
1.400001e+00 -1.512372e-02
1.450000e+00 -1.421692e-02
1.500000e+00 -1.321652e-02
1.550000e+00 -1.212177e-02
1.600000e+00 -1.093231e-02
1.650001e+00 -9.648208e-03
1.700000e+00 -8.269973e-03
1.750000e+00 -6.798606e-03
1.800000e+00 -5.235601e-03
1.850000e+00 -3.582980e-03
1.900001e+00 -1.843287e-03
1.950000e+00 -1.957098e-05
2.000000e+00 1.884617e-03
2.050000e+00 3.865199e-03
2.100000e+00 5.917549e-03
2.150001e+00 8.036491e-03
2.200000e+00 1.021630e-02
2.250000e+00 1.245076e-02
2.300000e+00 1.473316e-02
2.350000e+00 1.705633e-02
2.400001e+00 1.941262e-02
2.450000e+00 2.179391e-02
2.500000e+00 2.419164e-02
2.550000e+00 2.659688e-02
2.600000e+00 2.900034e-02
2.650001e+00 3.139243e-02
2.700000e+00 3.376329e-02
2.750000e+00 3.610284e-02
2.800000e+00 3.840076e-02
2.850000e+00 4.064657e-02
2.900001e+00 4.282974e-02
2.950000e+00 4.493966e-02
3.000000e+00 4.696577e-02
3.050000e+00 4.889755e-02
3.100000e+00 5.072466e-02
3.150001e+00 5.243690e-02
3.200000e+00 5.402432e-02
3.250000e+00 5.547725e-02
3.300000e+00 5.678647e-02
3.350000e+00 5.794311e-02
3.400001e+00 5.893882e-02
3.450000e+00 5.976580e-02
3.500000e+00 6.041684e-02
3.550000e+00 6.088540e-02
3.600000e+00 6.116560e-02
3.650001e+00 6.125241e-02
3.700000e+00 6.114156e-02
3.750000e+00 6.082964e-02
3.800000e+00 6.031412e-02
3.850000e+00 5.959341e-02
3.900001e+00 5.866685e-02
3.950000e+00 5.753477e-02
4.000000e+00 5.619851e-02
4.050000e+00 5.466040e-02
4.100000e+00 5.292384e-02
4.150001e+00 5.099320e-02
4.200000e+00 4.887392e-02
4.250000e+00 4.657237e-02
4.300000e+00 4.409599e-02
4.350000e+00 4.145312e-02
4.400001e+00 3.865306e-02
4.450000e+00 3.570601e-02
4.500000e+00 3.262303e-02
4.550000e+00 2.941590e-02
4.600000e+00 2.609720e-02
4.650001e+00 2.268014e-02
4.700000e+00 1.917857e-02
4.750000e+00 1.560686e-02
4.800000e+00 1.197986e-02
4.850000e+00 8.312767e-03
4.900001e+00 4.621071e-03
4.950000e+00 9.204295e-04
5.000000e+00 -2.773404e-03
5.050000e+00 -6.444653e-03
5.100000e+00 -1.007762e-02
5.150001e+00 -1.365678e-02
5.200000e+00 -1.716688e-02
5.250000e+00 -2.059305e-02
5.300000e+00 -2.392089e-02
5.350000e+00 -2.713654e-02
5.400001e+00 -3.022675e-02
5.450000e+00 -3.317902e-02
5.500000e+00 -3.598158e-02
5.550000e+00 -3.862352e-02
5.600000e+00 -4.109488e-02
5.650001e+00 -4.338666e-02
5.700000e+00 -4.549093e-02
5.750000e+00 -4.740077e-02
5.800000e+00 -4.911039e-02
5.850000e+00 -5.061508e-02
5.900001e+00 -5.191137e-02
5.950000e+00 -5.299688e-02
6.000000e+00 -5.387046e-02
6.050000e+00 -5.453205e-02
6.100000e+00 -5.498277e-02
6.150001e+00 -5.522480e-02
6.200000e+00 -5.526143e-02
6.250000e+00 -5.509706e-02
6.300000e+00 -5.473702e-02
6.350000e+00 -5.418762e-02
6.400001e+00 -5.345603e-02
6.450000e+00 -5.255027e-02
6.500000e+00 -5.147907e-02
6.550000e+00 -5.025192e-02
6.600000e+00 -4.887890e-02
6.650001e+00 -4.737059e-02
6.700000e+00 -4.573809e-02
6.750000e+00 -4.399278e-02
6.800000e+00 -4.214637e-02
6.850000e+00 -4.021069e-02
6.900001e+00 -3.819777e-02
6.950000e+00 -3.611964e-02
7.000000e+00 -3.398835e-02
7.050000e+00 -3.181570e-02
7.100000e+00 -2.961340e-02
7.150001e+00 -2.739283e-02
7.200000e+00 -2.516510e-02
7.250000e+00 -2.294086e-02
7.300000e+00 -2.073037e-02
7.350000e+00 -1.854338e-02
7.400001e+00 -1.638909e-02
7.450000e+00 -1.427616e-02
7.500000e+00 -1.221261e-02
7.550000e+00 -1.020582e-02
7.600000e+00 -8.262502e-03
7.650001e+00 -6.388684e-03
7.700000e+00 -4.589738e-03
7.750000e+00 -2.870342e-03
7.800000e+00 -1.234522e-03
7.850000e+00 3.143951e-04
7.900001e+00 1.773762e-03
7.950000e+00 3.141598e-03
8.000000e+00 4.416551e-03
8.050001e+00 5.597856e-03
8.100000e+00 6.685306e-03
8.150000e+00 7.679231e-03
8.200001e+00 8.580489e-03
8.250000e+00 9.390423e-03
8.300001e+00 1.011085e-02
8.350000e+00 1.074396e-02
8.400000e+00 1.129234e-02
8.450001e+00 1.175885e-02
8.500000e+00 1.214664e-02
8.550001e+00 1.245912e-02
8.600000e+00 1.269993e-02
8.650000e+00 1.287286e-02
8.700001e+00 1.298187e-02
8.750000e+00 1.303097e-02
8.800001e+00 1.302425e-02
8.850000e+00 1.296583e-02
8.900000e+00 1.285981e-02
8.950001e+00 1.271027e-02
9.000000e+00 1.252128e-02
9.050001e+00 1.229681e-02
9.100000e+00 1.204073e-02
9.150000e+00 1.175682e-02
9.200001e+00 1.144868e-02
9.250000e+00 1.111979e-02
9.300001e+00 1.077347e-02
9.350000e+00 1.041287e-02
9.400000e+00 1.004098e-02
9.450001e+00 9.660603e-03
9.500000e+00 9.274344e-03
9.550001e+00 8.884621e-03
9.600000e+00 8.493658e-03
9.650000e+00 8.103493e-03
9.700001e+00 7.715990e-03
9.750000e+00 7.332822e-03
9.800001e+00 6.955492e-03
9.850000e+00 6.585328e-03
9.900000e+00 6.223495e-03
9.950001e+00 5.871001e-03
1.000000e+01 5.528711e-03
1.005000e+01 5.197352e-03
1.010000e+01 4.877499e-03
1.015000e+01 4.569613e-03
1.020000e+01 4.274032e-03
1.025000e+01 3.990985e-03
1.030000e+01 3.720617e-03
1.035000e+01 3.462983e-03
1.040000e+01 3.218053e-03
1.045000e+01 2.985731e-03
1.050000e+01 2.765852e-03
1.055000e+01 2.558190e-03
1.060000e+01 2.362470e-03
1.065000e+01 2.178380e-03
1.070000e+01 2.005579e-03
1.075000e+01 1.843702e-03
1.080000e+01 1.692358e-03
1.085000e+01 1.551134e-03
1.090000e+01 1.419592e-03
1.095000e+01 1.297285e-03
1.100000e+01 1.183765e-03
1.105000e+01 1.078596e-03
1.110000e+01 9.813488e-04
1.115000e+01 8.915957e-04
1.120000e+01 8.089048e-04
1.125000e+01 7.328403e-04
1.130000e+01 6.629773e-04
1.135000e+01 5.989116e-04
1.140000e+01 5.402696e-04
1.145000e+01 4.866978e-04
1.150000e+01 4.378544e-04
1.155000e+01 3.934004e-04
1.160000e+01 3.530028e-04
1.165000e+01 3.163458e-04
1.170000e+01 2.831381e-04
1.175000e+01 2.531124e-04
1.180000e+01 2.260166e-04
1.185000e+01 2.016075e-04
1.190000e+01 1.796503e-04
1.195000e+01 1.599245e-04
1.200000e+01 1.422300e-04
1.205000e+01 1.263871e-04
1.210000e+01 1.122302e-04
1.215000e+01 9.960202e-05
1.220000e+01 8.835211e-05
1.225000e+01 7.834117e-05
1.230000e+01 6.944554e-05
1.235000e+01 6.155651e-05
1.240000e+01 5.457466e-05
1.245000e+01 4.840376e-05
1.250000e+01 4.294920e-05
1.255000e+01 3.812197e-05
1.260000e+01 3.384474e-05
1.265000e+01 3.005473e-05
1.270000e+01 2.670113e-05
1.275000e+01 2.373888e-05
1.280000e+01 2.112295e-05
1.285000e+01 1.880644e-05
1.290000e+01 1.674294e-05
1.295000e+01 1.489153e-05
1.300000e+01 1.322126e-05
1.305000e+01 1.171227e-05
1.310000e+01 1.035257e-05
1.315000e+01 9.131058e-06
1.320000e+01 8.030995e-06
1.325000e+01 7.028354e-06
1.330000e+01 6.097096e-06
1.335000e+01 5.218529e-06
1.340000e+01 4.387983e-06
1.345000e+01 3.612914e-06
1.350000e+01 2.902729e-06
1.355000e+01 2.257366e-06
1.360000e+01 1.663536e-06
1.365000e+01 1.102029e-06
1.370000e+01 5.607262e-07
1.375000e+01 4.304152e-08
1.380000e+01 -4.351672e-07
1.385000e+01 -8.580589e-07
1.390000e+01 -1.221991e-06
1.395000e+01 -1.538054e-06
1.400000e+01 -1.823286e-06
1.405000e+01 -2.087728e-06
1.410000e+01 -2.327252e-06
1.415000e+01 -2.527207e-06
1.420000e+01 -2.673525e-06
1.425000e+01 -2.762838e-06
1.430000e+01 -2.804578e-06
1.435000e+01 -2.814316e-06
1.440000e+01 -2.803483e-06
1.445000e+01 -2.772470e-06
1.450000e+01 -2.711263e-06
1.455000e+01 -2.606802e-06
1.460000e+01 -2.452324e-06
1.465000e+01 -2.252878e-06
1.470000e+01 -2.023501e-06
1.475000e+01 -1.780951e-06
1.480000e+01 -1.534141e-06
1.485000e+01 -1.279834e-06
1.490000e+01 -1.007123e-06
1.495000e+01 -7.081009e-07
1.500000e+01 -3.870771e-07
1.505000e+01 -6.090072e-08
1.510000e+01 2.507182e-07
1.515000e+01 5.380634e-07
1.520000e+01 8.073802e-07
1.525000e+01 1.074687e-06
1.530000e+01 1.351661e-06
1.535000e+01 1.634469e-06
1.540000e+01 1.904453e-06
1.545000e+01 2.140250e-06
1.550000e+01 2.331831e-06
1.555000e+01 2.485452e-06
1.560000e+01 2.615977e-06
1.565000e+01 2.733129e-06
1.570000e+01 2.832742e-06
1.575000e+01 2.899567e-06
1.580000e+01 2.918805e-06
1.585000e+01 2.886987e-06
1.590000e+01 2.814090e-06
1.595000e+01 2.716083e-06
1.600000e+01 2.604264e-06
1.605000e+01 2.479273e-06
1.610000e+01 2.333291e-06
1.615000e+01 2.157720e-06
1.620000e+01 1.950319e-06
1.625000e+01 1.717086e-06
1.630000e+01 1.468405e-06
1.635000e+01 1.212655e-06
1.640000e+01 9.516723e-07
1.645000e+01 6.809203e-07
1.650000e+01 3.941752e-07
1.655000e+01 8.977981e-08
1.660000e+01 -2.255934e-07
1.665000e+01 -5.384342e-07
1.670000e+01 -8.345970e-07
1.675000e+01 -1.106297e-06
1.680000e+01 -1.354986e-06
1.685000e+01 -1.587837e-06
1.690000e+01 -1.810260e-06
1.695000e+01 -2.020185e-06
1.700000e+01 -2.208670e-06
1.705000e+01 -2.366450e-06
1.710000e+01 -2.491047e-06
1.715000e+01 -2.588381e-06
1.720000e+01 -2.667230e-06
1.725000e+01 -2.730936e-06
1.730000e+01 -2.773279e-06
1.735000e+01 -2.782175e-06
1.740000e+01 -2.748471e-06
1.745000e+01 -2.672806e-06
1.750000e+01 -2.565039e-06
1.755000e+01 -2.436753e-06
1.760000e+01 -2.292857e-06
1.765000e+01 -2.128947e-06
1.770000e+01 -1.936429e-06
1.775000e+01 -1.711232e-06
1.780000e+01 -1.459301e-06
1.785000e+01 -1.194573e-06
1.790000e+01 -9.309353e-07
1.795000e+01 -6.740712e-07
1.800000e+01 -4.191291e-07
1.805000e+01 -1.558912e-07
1.810000e+01 1.222183e-07
1.815000e+01 4.116523e-07
1.820000e+01 6.994136e-07
1.825000e+01 9.705429e-07
1.830000e+01 1.217229e-06
1.835000e+01 1.443021e-06
1.840000e+01 1.658847e-06
1.845000e+01 1.873370e-06
1.850000e+01 2.084505e-06
1.855000e+01 2.278464e-06
1.860000e+01 2.437404e-06
1.865000e+01 2.550435e-06
1.870000e+01 2.619940e-06
1.875000e+01 2.658560e-06
1.880000e+01 2.679097e-06
1.885000e+01 2.685036e-06
1.890000e+01 2.668803e-06
1.895000e+01 2.618804e-06
1.900000e+01 2.529468e-06
1.905000e+01 2.406264e-06
1.910000e+01 2.261913e-06
1.915000e+01 2.107033e-06
1.920000e+01 1.942742e-06
1.925000e+01 1.760927e-06
1.930000e+01 1.551677e-06
1.935000e+01 1.311876e-06
1.940000e+01 1.048408e-06
1.945000e+01 7.739408e-07
1.950000e+01 4.990321e-07
1.955000e+01 2.267617e-07
1.960000e+01 -4.628050e-08
1.965000e+01 -3.239405e-07
1.970000e+01 -6.044345e-07
1.975000e+01 -8.790829e-07
1.980000e+01 -1.136797e-06
1.985000e+01 -1.370843e-06
1.990000e+01 -1.582631e-06
1.995000e+01 -1.779420e-06
2.000000e+01 -1.967373e-06
2.005000e+01 -2.145050e-06
2.010000e+01 -2.302468e-06
2.015000e+01 -2.426969e-06
2.020000e+01 -2.511955e-06
2.025000e+01 -2.561877e-06
2.030000e+01 -2.589172e-06
2.035000e+01 -2.604737e-06
2.040000e+01 -2.608857e-06
2.045000e+01 -2.589772e-06
2.050000e+01 -2.531652e-06
2.055000e+01 -2.426408e-06
2.060000e+01 -2.280402e-06
2.065000e+01 -2.110597e-06
2.070000e+01 -1.932814e-06
2.075000e+01 -1.751043e-06
2.080000e+01 -1.556118e-06
2.085000e+01 -1.334793e-06
2.090000e+01 -1.082111e-06
2.095000e+01 -8.073791e-07
2.100000e+01 -5.292165e-07
2.105000e+01 -2.636579e-07
2.110000e+01 -1.451487e-08
2.115000e+01 2.269315e-07
2.120000e+01 4.732255e-07
2.125000e+01 7.300085e-07
2.130000e+01 9.911574e-07
2.135000e+01 1.242680e-06
2.140000e+01 1.471665e-06
2.145000e+01 1.673447e-06
2.150000e+01 1.852248e-06
2.155000e+01 2.015704e-06
2.160000e+01 2.167768e-06
2.165000e+01 2.304943e-06
2.170000e+01 2.417950e-06
2.175000e+01 2.497156e-06
2.180000e+01 2.537964e-06
2.185000e+01 2.542801e-06
2.190000e+01 2.518740e-06
2.195000e+01 2.472619e-06
2.200000e+01 2.406978e-06
2.205000e+01 2.319533e-06
2.210000e+01 2.206374e-06
2.215000e+01 2.066377e-06
2.220000e+01 1.903336e-06
2.225000e+01 1.723995e-06
2.230000e+01 1.533453e-06
2.235000e+01 1.331729e-06
2.240000e+01 1.114577e-06
2.245000e+01 8.781797e-07
2.250000e+01 6.240023e-07
2.255000e+01 3.596539e-07
2.260000e+01 9.485969e-08
2.265000e+01 -1.642042e-07
2.270000e+01 -4.174103e-07
2.275000e+01 -6.678503e-07
2.280000e+01 -9.161352e-07
2.285000e+01 -1.156891e-06
2.290000e+01 -1.380713e-06
2.295000e+01 -1.580132e-06
2.300000e+01 -1.754539e-06
2.305000e+01 -1.909750e-06
2.310000e+01 -2.052337e-06
2.315000e+01 -2.183278e-06
2.320000e+01 -2.296131e-06
2.325000e+01 -2.381277e-06
2.330000e+01 -2.432929e-06
2.335000e+01 -2.453459e-06
2.340000e+01 -2.451749e-06
2.345000e+01 -2.436884e-06
2.350000e+01 -2.411846e-06
2.355000e+01 -2.371679e-06
2.360000e+01 -2.307216e-06
2.365000e+01 -2.211660e-06
2.370000e+01 -2.085567e-06
2.375000e+01 -1.937174e-06
2.380000e+01 -1.778083e-06
2.385000e+01 -1.617275e-06
2.390000e+01 -1.457309e-06
2.395000e+01 -1.295139e-06
2.400000e+01 -1.126913e-06
2.405000e+01 -9.534560e-07
2.410000e+01 -7.824986e-07
2.415000e+01 -6.257857e-07
2.420000e+01 -4.928681e-07
2.425000e+01 -3.860343e-07
2.430000e+01 -3.003822e-07
2.435000e+01 -2.293934e-07
2.440000e+01 -1.721109e-07
2.445000e+01 -1.364995e-07
2.450000e+01 -1.362530e-07
2.455000e+01 -1.833435e-07
2.460000e+01 -2.820047e-07
2.465000e+01 -4.287741e-07
2.470000e+01 -6.184090e-07
2.475000e+01 -8.508320e-07
2.480000e+01 -1.133554e-06
2.485000e+01 -1.477858e-06
2.490000e+01 -1.892135e-06
2.495000e+01 -2.377891e-06
2.500000e+01 -2.931463e-06
2.505000e+01 -3.549614e-06
2.510000e+01 -4.234111e-06
2.515000e+01 -4.991645e-06
2.520000e+01 -5.829598e-06
2.525000e+01 -6.751614e-06
2.530000e+01 -7.756839e-06
2.535000e+01 -8.843157e-06
2.540000e+01 -1.001144e-05
2.545000e+01 -1.126710e-05
2.550000e+01 -1.261788e-05
2.555000e+01 -1.407001e-05
2.560000e+01 -1.562603e-05
2.565000e+01 -1.728583e-05
2.570000e+01 -1.904960e-05
2.575000e+01 -2.091971e-05
2.580000e+01 -2.290012e-05
2.585000e+01 -2.499398e-05
2.590000e+01 -2.720188e-05
2.595000e+01 -2.952236e-05
2.600000e+01 -3.195447e-05
2.605000e+01 -3.450010e-05
2.610000e+01 -3.716419e-05
2.615000e+01 -3.995279e-05
2.620000e+01 -4.287025e-05
2.625000e+01 -4.591773e-05
2.630000e+01 -4.909381e-05
2.635000e+01 -5.239611e-05
2.640000e+01 -5.582296e-05
2.645000e+01 -5.937354e-05
2.650000e+01 -6.304689e-05
2.655000e+01 -6.684053e-05
2.660000e+01 -7.075003e-05
2.665000e+01 -7.476897e-05
2.670000e+01 -7.889007e-05
2.675000e+01 -8.310610e-05
2.680000e+01 -8.741026e-05
2.685000e+01 -9.179605e-05
2.690000e+01 -9.625607e-05
2.695000e+01 -1.007807e-04
2.700000e+01 -1.053570e-04
2.705000e+01 -1.099688e-04
2.710000e+01 -1.145974e-04
2.715000e+01 -1.192239e-04
2.720000e+01 -1.238306e-04
2.725000e+01 -1.284007e-04
2.730000e+01 -1.329167e-04
2.735000e+01 -1.373575e-04
2.740000e+01 -1.416976e-04
2.745000e+01 -1.459072e-04
2.750000e+01 -1.499562e-04
2.755000e+01 -1.538168e-04
2.760000e+01 -1.574636e-04
2.765000e+01 -1.608730e-04
2.770000e+01 -1.640194e-04
2.775000e+01 -1.668733e-04
2.780000e+01 -1.694023e-04
2.785000e+01 -1.715729e-04
2.790000e+01 -1.733543e-04
2.795000e+01 -1.747185e-04
2.800000e+01 -1.756397e-04
2.805000e+01 -1.760916e-04
2.810000e+01 -1.760463e-04
2.815000e+01 -1.754755e-04
2.820000e+01 -1.743526e-04
2.825000e+01 -1.726549e-04
2.830000e+01 -1.703635e-04
2.835000e+01 -1.674630e-04
2.840000e+01 -1.639398e-04
2.845000e+01 -1.597817e-04
2.850000e+01 -1.549793e-04
2.855000e+01 -1.495268e-04
2.860000e+01 -1.434226e-04
2.865000e+01 -1.366684e-04
2.870000e+01 -1.292693e-04
2.875000e+01 -1.212333e-04
2.880000e+01 -1.125721e-04
2.885000e+01 -1.033026e-04
2.890000e+01 -9.344584e-05
2.895000e+01 -8.302692e-05
2.900000e+01 -7.207343e-05
2.905000e+01 -6.061620e-05
2.910000e+01 -4.869028e-05
2.915000e+01 -3.633624e-05
2.920000e+01 -2.359999e-05
2.925000e+01 -1.053104e-05
2.930000e+01 2.819673e-06
2.935000e+01 1.640048e-05
2.940000e+01 3.015794e-05
2.945000e+01 4.403515e-05
