-8.000000e+00 0.000000e+00
-7.990000e+00 0.000000e+00
-7.980000e+00 0.000000e+00
-7.970000e+00 0.000000e+00
-7.960000e+00 0.000000e+00
-7.950000e+00 0.000000e+00
-7.940000e+00 0.000000e+00
-7.930000e+00 0.000000e+00
-7.920000e+00 0.000000e+00
-7.910000e+00 0.000000e+00
-7.900000e+00 0.000000e+00
-7.890000e+00 0.000000e+00
-7.880000e+00 0.000000e+00
-7.870000e+00 0.000000e+00
-7.860000e+00 0.000000e+00
-7.850000e+00 0.000000e+00
-7.840000e+00 0.000000e+00
-7.830000e+00 0.000000e+00
-7.820000e+00 0.000000e+00
-7.810000e+00 0.000000e+00
-7.800000e+00 0.000000e+00
-7.790000e+00 0.000000e+00
-7.780000e+00 0.000000e+00
-7.770000e+00 0.000000e+00
-7.760000e+00 0.000000e+00
-7.750000e+00 0.000000e+00
-7.740000e+00 0.000000e+00
-7.730000e+00 0.000000e+00
-7.720000e+00 0.000000e+00
-7.710000e+00 0.000000e+00
-7.700000e+00 0.000000e+00
-7.690000e+00 0.000000e+00
-7.680000e+00 0.000000e+00
-7.670000e+00 0.000000e+00
-7.660000e+00 0.000000e+00
-7.650000e+00 0.000000e+00
-7.640000e+00 0.000000e+00
-7.630000e+00 0.000000e+00
-7.620000e+00 0.000000e+00
-7.610000e+00 0.000000e+00
-7.600000e+00 0.000000e+00
-7.590000e+00 0.000000e+00
-7.580000e+00 0.000000e+00
-7.570000e+00 0.000000e+00
-7.560000e+00 0.000000e+00
-7.550000e+00 0.000000e+00
-7.540000e+00 0.000000e+00
-7.530000e+00 0.000000e+00
-7.520000e+00 0.000000e+00
-7.510000e+00 0.000000e+00
-7.500000e+00 0.000000e+00
-7.490000e+00 0.000000e+00
-7.480000e+00 0.000000e+00
-7.470000e+00 0.000000e+00
-7.460000e+00 0.000000e+00
-7.450000e+00 0.000000e+00
-7.440000e+00 0.000000e+00
-7.430000e+00 0.000000e+00
-7.420000e+00 0.000000e+00
-7.410000e+00 0.000000e+00
-7.400000e+00 0.000000e+00
-7.390000e+00 0.000000e+00
-7.380000e+00 0.000000e+00
-7.370000e+00 0.000000e+00
-7.360000e+00 0.000000e+00
-7.350000e+00 0.000000e+00
-7.340000e+00 0.000000e+00
-7.330000e+00 0.000000e+00
-7.320000e+00 0.000000e+00
-7.310000e+00 0.000000e+00
-7.300000e+00 0.000000e+00
-7.290000e+00 0.000000e+00
-7.280000e+00 0.000000e+00
-7.270000e+00 0.000000e+00
-7.260000e+00 0.000000e+00
-7.250000e+00 0.000000e+00
-7.240000e+00 0.000000e+00
-7.230000e+00 0.000000e+00
-7.220000e+00 0.000000e+00
-7.210000e+00 0.000000e+00
-7.200000e+00 0.000000e+00
-7.190000e+00 0.000000e+00
-7.180000e+00 0.000000e+00
-7.170000e+00 0.000000e+00
-7.160000e+00 0.000000e+00
-7.150000e+00 0.000000e+00
-7.140000e+00 0.000000e+00
-7.130000e+00 0.000000e+00
-7.120000e+00 0.000000e+00
-7.110000e+00 0.000000e+00
-7.100000e+00 0.000000e+00
-7.090000e+00 0.000000e+00
-7.080000e+00 0.000000e+00
-7.070000e+00 0.000000e+00
-7.060000e+00 0.000000e+00
-7.050000e+00 0.000000e+00
-7.040000e+00 0.000000e+00
-7.030000e+00 0.000000e+00
-7.020000e+00 0.000000e+00
-7.010000e+00 0.000000e+00
-7.000000e+00 0.000000e+00
-6.990000e+00 0.000000e+00
-6.980000e+00 0.000000e+00
-6.970000e+00 0.000000e+00
-6.960000e+00 0.000000e+00
-6.950000e+00 0.000000e+00
-6.940000e+00 0.000000e+00
-6.930000e+00 0.000000e+00
-6.920000e+00 0.000000e+00
-6.910000e+00 0.000000e+00
-6.900000e+00 0.000000e+00
-6.890000e+00 0.000000e+00
-6.880000e+00 0.000000e+00
-6.870000e+00 0.000000e+00
-6.860000e+00 0.000000e+00
-6.850000e+00 0.000000e+00
-6.840000e+00 0.000000e+00
-6.830000e+00 0.000000e+00
-6.820000e+00 0.000000e+00
-6.810000e+00 0.000000e+00
-6.800000e+00 0.000000e+00
-6.790000e+00 0.000000e+00
-6.780000e+00 0.000000e+00
-6.770000e+00 0.000000e+00
-6.760000e+00 0.000000e+00
-6.750000e+00 0.000000e+00
-6.740000e+00 0.000000e+00
-6.730000e+00 0.000000e+00
-6.720000e+00 0.000000e+00
-6.710000e+00 0.000000e+00
-6.700000e+00 0.000000e+00
-6.690000e+00 0.000000e+00
-6.680000e+00 0.000000e+00
-6.670000e+00 0.000000e+00
-6.660000e+00 0.000000e+00
-6.650000e+00 0.000000e+00
-6.640000e+00 0.000000e+00
-6.630000e+00 0.000000e+00
-6.620000e+00 0.000000e+00
-6.610000e+00 0.000000e+00
-6.600000e+00 0.000000e+00
-6.590000e+00 0.000000e+00
-6.580000e+00 0.000000e+00
-6.570000e+00 0.000000e+00
-6.560000e+00 0.000000e+00
-6.550000e+00 0.000000e+00
-6.540000e+00 0.000000e+00
-6.530000e+00 0.000000e+00
-6.520000e+00 0.000000e+00
-6.510000e+00 0.000000e+00
-6.500000e+00 0.000000e+00
-6.490000e+00 0.000000e+00
-6.480000e+00 0.000000e+00
-6.470000e+00 0.000000e+00
-6.460000e+00 0.000000e+00
-6.450000e+00 0.000000e+00
-6.440000e+00 0.000000e+00
-6.430000e+00 0.000000e+00
-6.420000e+00 0.000000e+00
-6.410000e+00 0.000000e+00
-6.400000e+00 0.000000e+00
-6.390000e+00 0.000000e+00
-6.380000e+00 0.000000e+00
-6.370000e+00 0.000000e+00
-6.360000e+00 0.000000e+00
-6.350000e+00 0.000000e+00
-6.340000e+00 0.000000e+00
-6.330000e+00 0.000000e+00
-6.320000e+00 0.000000e+00
-6.310000e+00 0.000000e+00
-6.300000e+00 0.000000e+00
-6.290000e+00 0.000000e+00
-6.280000e+00 0.000000e+00
-6.270000e+00 0.000000e+00
-6.260000e+00 0.000000e+00
-6.250000e+00 0.000000e+00
-6.240000e+00 0.000000e+00
-6.230000e+00 0.000000e+00
-6.220000e+00 0.000000e+00
-6.210000e+00 0.000000e+00
-6.200000e+00 0.000000e+00
-6.190000e+00 0.000000e+00
-6.180000e+00 0.000000e+00
-6.170000e+00 0.000000e+00
-6.160000e+00 0.000000e+00
-6.150000e+00 0.000000e+00
-6.140000e+00 0.000000e+00
-6.130000e+00 0.000000e+00
-6.120000e+00 0.000000e+00
-6.110000e+00 0.000000e+00
-6.100000e+00 0.000000e+00
-6.090000e+00 0.000000e+00
-6.080000e+00 0.000000e+00
-6.070000e+00 0.000000e+00
-6.060000e+00 0.000000e+00
-6.050000e+00 0.000000e+00
-6.040000e+00 0.000000e+00
-6.030000e+00 0.000000e+00
-6.020000e+00 0.000000e+00
-6.010000e+00 0.000000e+00
-6.000000e+00 0.000000e+00
-5.990000e+00 0.000000e+00
-5.980000e+00 0.000000e+00
-5.970000e+00 0.000000e+00
-5.960000e+00 0.000000e+00
-5.950000e+00 0.000000e+00
-5.940000e+00 0.000000e+00
-5.930000e+00 0.000000e+00
-5.920000e+00 0.000000e+00
-5.910000e+00 0.000000e+00
-5.900000e+00 0.000000e+00
-5.890000e+00 0.000000e+00
-5.880000e+00 0.000000e+00
-5.870000e+00 0.000000e+00
-5.860000e+00 0.000000e+00
-5.850000e+00 0.000000e+00
-5.840000e+00 0.000000e+00
-5.830000e+00 0.000000e+00
-5.820000e+00 0.000000e+00
-5.810000e+00 0.000000e+00
-5.800000e+00 0.000000e+00
-5.790000e+00 0.000000e+00
-5.780000e+00 0.000000e+00
-5.770000e+00 0.000000e+00
-5.760000e+00 0.000000e+00
-5.750000e+00 0.000000e+00
-5.740000e+00 0.000000e+00
-5.730000e+00 0.000000e+00
-5.720000e+00 0.000000e+00
-5.710000e+00 0.000000e+00
-5.700000e+00 0.000000e+00
-5.690000e+00 0.000000e+00
-5.680000e+00 0.000000e+00
-5.670000e+00 0.000000e+00
-5.660000e+00 0.000000e+00
-5.650000e+00 0.000000e+00
-5.640000e+00 0.000000e+00
-5.630000e+00 0.000000e+00
-5.620000e+00 0.000000e+00
-5.610000e+00 0.000000e+00
-5.600000e+00 0.000000e+00
-5.590000e+00 0.000000e+00
-5.580000e+00 0.000000e+00
-5.570000e+00 0.000000e+00
-5.560000e+00 0.000000e+00
-5.550000e+00 0.000000e+00
-5.540000e+00 0.000000e+00
-5.530000e+00 0.000000e+00
-5.520000e+00 0.000000e+00
-5.510000e+00 0.000000e+00
-5.500000e+00 0.000000e+00
-5.490000e+00 0.000000e+00
-5.480000e+00 0.000000e+00
-5.470000e+00 0.000000e+00
-5.460000e+00 0.000000e+00
-5.450000e+00 0.000000e+00
-5.440000e+00 0.000000e+00
-5.430000e+00 0.000000e+00
-5.420000e+00 0.000000e+00
-5.410000e+00 0.000000e+00
-5.400000e+00 0.000000e+00
-5.390000e+00 0.000000e+00
-5.380000e+00 0.000000e+00
-5.370000e+00 0.000000e+00
-5.360000e+00 0.000000e+00
-5.350000e+00 0.000000e+00
-5.340000e+00 0.000000e+00
-5.330000e+00 0.000000e+00
-5.320000e+00 0.000000e+00
-5.310000e+00 0.000000e+00
-5.300000e+00 0.000000e+00
-5.290000e+00 0.000000e+00
-5.280000e+00 0.000000e+00
-5.270000e+00 0.000000e+00
-5.260000e+00 0.000000e+00
-5.250000e+00 0.000000e+00
-5.240000e+00 0.000000e+00
-5.230000e+00 0.000000e+00
-5.220000e+00 0.000000e+00
-5.210000e+00 0.000000e+00
-5.200000e+00 0.000000e+00
-5.190000e+00 0.000000e+00
-5.180000e+00 0.000000e+00
-5.170000e+00 0.000000e+00
-5.160000e+00 0.000000e+00
-5.150000e+00 0.000000e+00
-5.140000e+00 0.000000e+00
-5.130000e+00 0.000000e+00
-5.120000e+00 0.000000e+00
-5.110000e+00 0.000000e+00
-5.100000e+00 0.000000e+00
-5.090000e+00 0.000000e+00
-5.080000e+00 0.000000e+00
-5.070000e+00 0.000000e+00
-5.060000e+00 0.000000e+00
-5.050000e+00 0.000000e+00
-5.040000e+00 0.000000e+00
-5.030000e+00 0.000000e+00
-5.020000e+00 0.000000e+00
-5.010000e+00 0.000000e+00
-5.000000e+00 0.000000e+00
-4.990000e+00 0.000000e+00
-4.980000e+00 0.000000e+00
-4.970000e+00 0.000000e+00
-4.960000e+00 0.000000e+00
-4.950000e+00 0.000000e+00
-4.940000e+00 0.000000e+00
-4.930000e+00 0.000000e+00
-4.920000e+00 0.000000e+00
-4.910000e+00 0.000000e+00
-4.900000e+00 0.000000e+00
-4.890000e+00 0.000000e+00
-4.880000e+00 0.000000e+00
-4.870000e+00 0.000000e+00
-4.860000e+00 0.000000e+00
-4.850000e+00 0.000000e+00
-4.840000e+00 0.000000e+00
-4.830000e+00 0.000000e+00
-4.820000e+00 0.000000e+00
-4.810000e+00 0.000000e+00
-4.800000e+00 0.000000e+00
-4.790000e+00 0.000000e+00
-4.780000e+00 0.000000e+00
-4.770000e+00 0.000000e+00
-4.760000e+00 0.000000e+00
-4.750000e+00 0.000000e+00
-4.740000e+00 0.000000e+00
-4.730000e+00 0.000000e+00
-4.720000e+00 0.000000e+00
-4.710000e+00 0.000000e+00
-4.700000e+00 0.000000e+00
-4.690000e+00 0.000000e+00
-4.680000e+00 0.000000e+00
-4.670000e+00 0.000000e+00
-4.660000e+00 0.000000e+00
-4.650000e+00 0.000000e+00
-4.640000e+00 0.000000e+00
-4.630000e+00 0.000000e+00
-4.620000e+00 0.000000e+00
-4.610000e+00 0.000000e+00
-4.600000e+00 0.000000e+00
-4.590000e+00 0.000000e+00
-4.580000e+00 0.000000e+00
-4.570000e+00 0.000000e+00
-4.560000e+00 0.000000e+00
-4.550000e+00 0.000000e+00
-4.540000e+00 0.000000e+00
-4.530000e+00 0.000000e+00
-4.520000e+00 0.000000e+00
-4.510000e+00 0.000000e+00
-4.500000e+00 0.000000e+00
-4.490000e+00 0.000000e+00
-4.480000e+00 0.000000e+00
-4.470000e+00 0.000000e+00
-4.460000e+00 0.000000e+00
-4.450000e+00 0.000000e+00
-4.440000e+00 0.000000e+00
-4.430000e+00 0.000000e+00
-4.420000e+00 0.000000e+00
-4.410000e+00 0.000000e+00
-4.400000e+00 0.000000e+00
-4.390000e+00 0.000000e+00
-4.380000e+00 0.000000e+00
-4.370000e+00 0.000000e+00
-4.360000e+00 0.000000e+00
-4.350000e+00 0.000000e+00
-4.340000e+00 0.000000e+00
-4.330000e+00 0.000000e+00
-4.320000e+00 0.000000e+00
-4.310000e+00 0.000000e+00
-4.300000e+00 0.000000e+00
-4.290000e+00 0.000000e+00
-4.280000e+00 0.000000e+00
-4.270000e+00 0.000000e+00
-4.260000e+00 0.000000e+00
-4.250000e+00 0.000000e+00
-4.240000e+00 0.000000e+00
-4.230000e+00 0.000000e+00
-4.220000e+00 0.000000e+00
-4.210000e+00 0.000000e+00
-4.200000e+00 0.000000e+00
-4.190000e+00 0.000000e+00
-4.180000e+00 0.000000e+00
-4.170000e+00 0.000000e+00
-4.160000e+00 0.000000e+00
-4.150000e+00 0.000000e+00
-4.140000e+00 0.000000e+00
-4.130000e+00 0.000000e+00
-4.120000e+00 0.000000e+00
-4.110000e+00 0.000000e+00
-4.100000e+00 0.000000e+00
-4.090000e+00 0.000000e+00
-4.080000e+00 0.000000e+00
-4.070000e+00 0.000000e+00
-4.060000e+00 0.000000e+00
-4.050000e+00 0.000000e+00
-4.040000e+00 0.000000e+00
-4.030000e+00 0.000000e+00
-4.020000e+00 0.000000e+00
-4.010000e+00 0.000000e+00
-4.000000e+00 0.000000e+00
-3.990000e+00 0.000000e+00
-3.980000e+00 0.000000e+00
-3.970000e+00 0.000000e+00
-3.960000e+00 0.000000e+00
-3.950000e+00 0.000000e+00
-3.940000e+00 0.000000e+00
-3.930000e+00 0.000000e+00
-3.920000e+00 0.000000e+00
-3.910000e+00 0.000000e+00
-3.900000e+00 0.000000e+00
-3.890000e+00 0.000000e+00
-3.880000e+00 0.000000e+00
-3.870000e+00 0.000000e+00
-3.860000e+00 0.000000e+00
-3.850000e+00 0.000000e+00
-3.840000e+00 0.000000e+00
-3.830000e+00 0.000000e+00
-3.820000e+00 0.000000e+00
-3.810000e+00 0.000000e+00
-3.800000e+00 0.000000e+00
-3.790000e+00 0.000000e+00
-3.780000e+00 0.000000e+00
-3.770000e+00 0.000000e+00
-3.760000e+00 0.000000e+00
-3.750000e+00 0.000000e+00
-3.740000e+00 0.000000e+00
-3.730000e+00 0.000000e+00
-3.720000e+00 0.000000e+00
-3.710000e+00 0.000000e+00
-3.700000e+00 0.000000e+00
-3.690000e+00 0.000000e+00
-3.680000e+00 0.000000e+00
-3.670000e+00 0.000000e+00
-3.660000e+00 0.000000e+00
-3.650000e+00 0.000000e+00
-3.640000e+00 0.000000e+00
-3.630000e+00 0.000000e+00
-3.620000e+00 0.000000e+00
-3.610000e+00 0.000000e+00
-3.600000e+00 0.000000e+00
-3.590000e+00 0.000000e+00
-3.580000e+00 0.000000e+00
-3.570000e+00 0.000000e+00
-3.560000e+00 0.000000e+00
-3.550000e+00 0.000000e+00
-3.540000e+00 0.000000e+00
-3.530000e+00 0.000000e+00
-3.520000e+00 0.000000e+00
-3.510000e+00 0.000000e+00
-3.500000e+00 0.000000e+00
-3.490000e+00 0.000000e+00
-3.480000e+00 0.000000e+00
-3.470000e+00 0.000000e+00
-3.460000e+00 0.000000e+00
-3.450000e+00 0.000000e+00
-3.440000e+00 0.000000e+00
-3.430000e+00 0.000000e+00
-3.420000e+00 0.000000e+00
-3.410000e+00 0.000000e+00
-3.400000e+00 0.000000e+00
-3.390000e+00 0.000000e+00
-3.380000e+00 0.000000e+00
-3.370000e+00 0.000000e+00
-3.360000e+00 0.000000e+00
-3.350000e+00 0.000000e+00
-3.340000e+00 0.000000e+00
-3.330000e+00 0.000000e+00
-3.320000e+00 0.000000e+00
-3.310000e+00 0.000000e+00
-3.300000e+00 0.000000e+00
-3.290000e+00 0.000000e+00
-3.280000e+00 0.000000e+00
-3.270000e+00 0.000000e+00
-3.260000e+00 0.000000e+00
-3.250000e+00 0.000000e+00
-3.240000e+00 0.000000e+00
-3.230000e+00 0.000000e+00
-3.220000e+00 0.000000e+00
-3.210000e+00 0.000000e+00
-3.200000e+00 0.000000e+00
-3.190000e+00 0.000000e+00
-3.180000e+00 0.000000e+00
-3.170000e+00 0.000000e+00
-3.160000e+00 0.000000e+00
-3.150000e+00 0.000000e+00
-3.140000e+00 0.000000e+00
-3.130000e+00 0.000000e+00
-3.120000e+00 0.000000e+00
-3.110000e+00 0.000000e+00
-3.100000e+00 0.000000e+00
-3.090000e+00 0.000000e+00
-3.080000e+00 0.000000e+00
-3.070000e+00 0.000000e+00
-3.060000e+00 0.000000e+00
-3.050000e+00 0.000000e+00
-3.040000e+00 0.000000e+00
-3.030000e+00 0.000000e+00
-3.020000e+00 0.000000e+00
-3.010000e+00 0.000000e+00
-3.000000e+00 0.000000e+00
-2.990000e+00 0.000000e+00
-2.980000e+00 0.000000e+00
-2.970000e+00 0.000000e+00
-2.960000e+00 0.000000e+00
-2.950000e+00 0.000000e+00
-2.940000e+00 0.000000e+00
-2.930000e+00 0.000000e+00
-2.920000e+00 0.000000e+00
-2.910000e+00 0.000000e+00
-2.900000e+00 0.000000e+00
-2.890000e+00 0.000000e+00
-2.880000e+00 0.000000e+00
-2.870000e+00 0.000000e+00
-2.860000e+00 0.000000e+00
-2.850000e+00 0.000000e+00
-2.840000e+00 0.000000e+00
-2.830000e+00 0.000000e+00
-2.820000e+00 0.000000e+00
-2.810000e+00 0.000000e+00
-2.800000e+00 0.000000e+00
-2.790000e+00 0.000000e+00
-2.780000e+00 0.000000e+00
-2.770000e+00 0.000000e+00
-2.760000e+00 0.000000e+00
-2.750000e+00 0.000000e+00
-2.740000e+00 0.000000e+00
-2.730000e+00 0.000000e+00
-2.720000e+00 0.000000e+00
-2.710000e+00 0.000000e+00
-2.700000e+00 0.000000e+00
-2.690000e+00 0.000000e+00
-2.680000e+00 0.000000e+00
-2.670000e+00 0.000000e+00
-2.660000e+00 0.000000e+00
-2.650000e+00 0.000000e+00
-2.640000e+00 0.000000e+00
-2.630000e+00 0.000000e+00
-2.620000e+00 0.000000e+00
-2.610000e+00 0.000000e+00
-2.600000e+00 0.000000e+00
-2.590000e+00 0.000000e+00
-2.580000e+00 0.000000e+00
-2.570000e+00 0.000000e+00
-2.560000e+00 0.000000e+00
-2.550000e+00 0.000000e+00
-2.540000e+00 0.000000e+00
-2.530000e+00 0.000000e+00
-2.520000e+00 0.000000e+00
-2.510000e+00 0.000000e+00
-2.500000e+00 0.000000e+00
-2.490000e+00 0.000000e+00
-2.480000e+00 0.000000e+00
-2.470000e+00 0.000000e+00
-2.460000e+00 0.000000e+00
-2.450000e+00 0.000000e+00
-2.440000e+00 0.000000e+00
-2.430000e+00 0.000000e+00
-2.420000e+00 0.000000e+00
-2.410000e+00 0.000000e+00
-2.400000e+00 0.000000e+00
-2.390000e+00 0.000000e+00
-2.380000e+00 0.000000e+00
-2.370000e+00 0.000000e+00
-2.360000e+00 0.000000e+00
-2.350000e+00 0.000000e+00
-2.340000e+00 0.000000e+00
-2.330000e+00 0.000000e+00
-2.320000e+00 0.000000e+00
-2.310000e+00 0.000000e+00
-2.300000e+00 0.000000e+00
-2.290000e+00 0.000000e+00
-2.280000e+00 0.000000e+00
-2.270000e+00 0.000000e+00
-2.260000e+00 0.000000e+00
-2.250000e+00 0.000000e+00
-2.240000e+00 0.000000e+00
-2.230000e+00 0.000000e+00
-2.220000e+00 0.000000e+00
-2.210000e+00 0.000000e+00
-2.200000e+00 0.000000e+00
-2.190000e+00 0.000000e+00
-2.180000e+00 0.000000e+00
-2.170000e+00 0.000000e+00
-2.160000e+00 0.000000e+00
-2.150000e+00 0.000000e+00
-2.140000e+00 0.000000e+00
-2.130000e+00 0.000000e+00
-2.120000e+00 0.000000e+00
-2.110000e+00 0.000000e+00
-2.100000e+00 0.000000e+00
-2.090000e+00 0.000000e+00
-2.080000e+00 0.000000e+00
-2.070000e+00 0.000000e+00
-2.060000e+00 0.000000e+00
-2.050000e+00 0.000000e+00
-2.040000e+00 0.000000e+00
-2.030000e+00 0.000000e+00
-2.020000e+00 0.000000e+00
-2.010000e+00 0.000000e+00
-2.000000e+00 0.000000e+00
-1.990000e+00 0.000000e+00
-1.980000e+00 0.000000e+00
-1.970000e+00 0.000000e+00
-1.960000e+00 0.000000e+00
-1.950000e+00 0.000000e+00
-1.940000e+00 0.000000e+00
-1.930000e+00 0.000000e+00
-1.920000e+00 0.000000e+00
-1.910000e+00 0.000000e+00
-1.900000e+00 0.000000e+00
-1.890000e+00 0.000000e+00
-1.880000e+00 0.000000e+00
-1.870000e+00 0.000000e+00
-1.860000e+00 0.000000e+00
-1.850000e+00 0.000000e+00
-1.840000e+00 0.000000e+00
-1.830000e+00 0.000000e+00
-1.820000e+00 0.000000e+00
-1.810000e+00 0.000000e+00
-1.800000e+00 0.000000e+00
-1.790000e+00 0.000000e+00
-1.780000e+00 0.000000e+00
-1.770000e+00 0.000000e+00
-1.760000e+00 0.000000e+00
-1.750000e+00 0.000000e+00
-1.740000e+00 0.000000e+00
-1.730000e+00 0.000000e+00
-1.720000e+00 0.000000e+00
-1.710000e+00 0.000000e+00
-1.700000e+00 0.000000e+00
-1.690000e+00 0.000000e+00
-1.680000e+00 0.000000e+00
-1.670000e+00 0.000000e+00
-1.660000e+00 0.000000e+00
-1.650000e+00 0.000000e+00
-1.640000e+00 0.000000e+00
-1.630000e+00 0.000000e+00
-1.620000e+00 0.000000e+00
-1.610000e+00 0.000000e+00
-1.600000e+00 0.000000e+00
-1.590000e+00 0.000000e+00
-1.580000e+00 0.000000e+00
-1.570000e+00 0.000000e+00
-1.560000e+00 0.000000e+00
-1.550000e+00 0.000000e+00
-1.540000e+00 0.000000e+00
-1.530000e+00 0.000000e+00
-1.520000e+00 0.000000e+00
-1.510000e+00 0.000000e+00
-1.500000e+00 0.000000e+00
-1.490000e+00 0.000000e+00
-1.480000e+00 0.000000e+00
-1.470000e+00 0.000000e+00
-1.460000e+00 0.000000e+00
-1.450000e+00 0.000000e+00
-1.440000e+00 0.000000e+00
-1.430000e+00 0.000000e+00
-1.420000e+00 0.000000e+00
-1.410000e+00 0.000000e+00
-1.400000e+00 0.000000e+00
-1.390000e+00 0.000000e+00
-1.380000e+00 0.000000e+00
-1.370000e+00 0.000000e+00
-1.360000e+00 0.000000e+00
-1.350000e+00 0.000000e+00
-1.340000e+00 0.000000e+00
-1.330000e+00 0.000000e+00
-1.320000e+00 0.000000e+00
-1.310000e+00 0.000000e+00
-1.300000e+00 0.000000e+00
-1.290000e+00 0.000000e+00
-1.280000e+00 0.000000e+00
-1.270000e+00 0.000000e+00
-1.260000e+00 0.000000e+00
-1.250000e+00 0.000000e+00
-1.240000e+00 0.000000e+00
-1.230000e+00 0.000000e+00
-1.220000e+00 0.000000e+00
-1.210000e+00 0.000000e+00
-1.200000e+00 0.000000e+00
-1.190000e+00 0.000000e+00
-1.180000e+00 0.000000e+00
-1.170000e+00 0.000000e+00
-1.160000e+00 0.000000e+00
-1.150000e+00 0.000000e+00
-1.140000e+00 0.000000e+00
-1.130000e+00 0.000000e+00
-1.120000e+00 0.000000e+00
-1.110000e+00 -1.401298e-45
-1.100000e+00 -2.802597e-45
-1.090000e+00 -4.203895e-45
-1.080000e+00 -5.605194e-45
-1.070000e+00 -4.203895e-45
-1.060000e+00 -2.802597e-45
-1.050000e+00 -2.802597e-45
-1.040000e+00 -2.802597e-45
-1.030000e+00 -2.802597e-45
-1.020000e+00 -1.401298e-45
-1.010000e+00 -1.401298e-45
-1.000000e+00 0.000000e+00
-9.900002e-01 2.802597e-45
-9.800000e-01 -2.802597e-45
-9.700003e-01 -1.401298e-45
-9.600000e-01 4.203895e-45
-9.500003e-01 8.407791e-45
-9.400001e-01 5.605194e-45
-9.300003e-01 2.802597e-45
-9.200001e-01 5.605194e-45
-9.100003e-01 9.809089e-45
-9.000001e-01 9.809089e-45
-8.900003e-01 1.261169e-44
-8.800001e-01 1.121039e-44
-8.700004e-01 7.006492e-45
-8.600001e-01 4.203895e-45
-8.500004e-01 2.802597e-45
-8.400002e-01 7.006492e-45
-8.299999e-01 5.605194e-45
-8.200002e-01 2.802597e-45
-8.099999e-01 8.407791e-45
-8.000002e-01 2.802597e-45
-7.900000e-01 -2.802597e-45
-7.800002e-01 -5.605194e-45
-7.700000e-01 -1.121039e-44
-7.600002e-01 -1.401298e-44
-7.500000e-01 -1.401298e-44
-7.400002e-01 -2.242078e-44
-7.300000e-01 -1.821688e-44
-7.200003e-01 -1.961818e-44
-7.100000e-01 -1.821688e-44
-7.000003e-01 -2.662467e-44
-6.900001e-01 -2.242078e-44
-6.800003e-01 -2.802597e-45
-6.700001e-01 8.407791e-45
-6.600003e-01 1.121039e-44
-6.500001e-01 1.961818e-44
-6.400003e-01 3.503246e-44
-6.300001e-01 5.184804e-44
-6.200004e-01 6.445973e-44
-6.100001e-01 7.847271e-44
-6.000004e-01 9.388700e-44
-5.900002e-01 1.036961e-43
-5.800004e-01 1.233143e-43
-5.700002e-01 1.219130e-43
-5.599999e-01 1.303208e-43
-5.500002e-01 1.261169e-43
-5.400000e-01 1.149065e-43
-5.300002e-01 1.064987e-43
-5.200000e-01 7.286752e-44
-5.100002e-01 4.904545e-44
-5.000000e-01 1.541428e-44
-4.900002e-01 -1.961818e-44
-4.800000e-01 -7.847271e-44
-4.700003e-01 -1.331234e-43
-4.600000e-01 -1.919779e-43
-4.500003e-01 -2.564376e-43
-4.400001e-01 -3.040818e-43
-4.300003e-01 -3.671402e-43
-4.200001e-01 -4.133830e-43
-4.100003e-01 -4.610272e-43
-4.000001e-01 -5.100726e-43
-3.900003e-01 -5.268882e-43
-3.800001e-01 -5.310921e-43
-3.700004e-01 -5.268882e-43
-3.600001e-01 -4.862506e-43
-3.500004e-01 -4.315999e-43
-3.400002e-01 -3.447194e-43
-3.300004e-01 -2.438259e-43
-3.200002e-01 -1.008935e-43
-3.099999e-01 5.324934e-44
-3.000002e-01 2.340168e-43
-2.900000e-01 4.456129e-43
-2.800002e-01 6.614129e-43
-2.700000e-01 8.870219e-43
-2.600002e-01 1.115434e-42
-2.500000e-01 1.336839e-42
-2.400002e-01 1.545632e-42
-2.300000e-01 1.730604e-42
-2.200003e-01 1.880543e-42
-2.100000e-01 1.981436e-42
-2.000003e-01 2.010863e-42
-1.900001e-01 1.975831e-42
-1.800003e-01 1.863727e-42
-1.700001e-01 1.657736e-42
-1.600003e-01 1.352253e-42
-1.500001e-01 9.556856e-43
-1.400003e-01 4.540207e-43
-1.300001e-01 -1.541428e-43
-1.200004e-01 -8.379765e-43
-1.100001e-01 -1.612895e-42
-1.000004e-01 -2.439661e-42
-9.000015e-02 -3.312670e-42
-8.000040e-02 -4.201093e-42
-7.000017e-02 -5.069898e-42
-5.999994e-02 -5.893861e-42
-5.000019e-02 -6.625339e-42
-3.999996e-02 -7.236305e-42
-3.000021e-02 -7.663701e-42
-1.999998e-02 -7.885106e-42
-1.000023e-02 -7.845870e-42
0.000000e+00 -7.519368e-42
1.000023e-02 -6.864961e-42
1.999950e-02 -5.858829e-42
2.999973e-02 -4.474346e-42
3.999996e-02 -2.725526e-42
5.000019e-02 -6.067622e-43
5.999947e-02 1.862326e-42
6.999969e-02 4.649508e-42
7.999992e-02 7.669306e-42
9.000015e-02 1.087828e-41
9.999943e-02 1.419375e-41
1.099997e-01 1.748260e-41
1.199999e-01 2.062151e-41
1.300001e-01 2.349978e-41
1.399994e-01 2.595065e-41
1.499996e-01 2.781718e-41
1.599998e-01 2.897185e-41
1.700001e-01 2.923109e-41
1.799994e-01 2.847298e-41
1.899996e-01 2.655741e-41
1.999998e-01 2.339748e-41
2.100000e-01 1.891473e-41
2.200003e-01 1.307411e-41
2.299995e-01 5.888256e-42
2.399998e-01 -2.589600e-42
2.500000e-01 -1.222633e-41
2.600002e-01 -2.285798e-41
2.699995e-01 -3.422671e-41
2.799997e-01 -4.606769e-41
2.900000e-01 -5.797452e-41
3.000002e-01 -6.955065e-41
3.099995e-01 -8.032103e-41
3.199997e-01 -8.976718e-41
3.299999e-01 -9.736922e-41
3.400002e-01 -1.025764e-40
3.499994e-01 -1.048367e-40
3.599997e-01 -1.036372e-40
3.699999e-01 -9.853931e-41
3.800001e-01 -8.912118e-41
3.899994e-01 -7.512081e-41
3.999996e-01 -5.634061e-41
4.099998e-01 -3.279459e-41
4.200001e-01 -4.613075e-42
4.299994e-01 2.785641e-41
4.399996e-01 6.406176e-41
4.499998e-01 1.032505e-40
4.600000e-01 1.444444e-40
4.700003e-01 1.864498e-40
4.799995e-01 2.278665e-40
4.899998e-01 2.671365e-40
5.000000e-01 3.025361e-40
5.100002e-01 3.322254e-40
5.199995e-01 3.543267e-40
5.299997e-01 3.669440e-40
5.400000e-01 3.682724e-40
5.500002e-01 3.566263e-40
5.599995e-01 3.305691e-40
5.699997e-01 2.889674e-40
5.799999e-01 2.310783e-40
5.900002e-01 1.566231e-40
5.999994e-01 6.592549e-41
6.099997e-01 -4.012618e-41
6.199999e-01 -1.599316e-40
6.300001e-01 -2.911800e-40
6.399994e-01 -4.308306e-40
6.499996e-01 -5.751055e-40
6.599998e-01 -7.195457e-40
6.700001e-01 -8.590016e-40
6.799994e-01 -9.878524e-40
6.899996e-01 -1.099986e-39
6.999998e-01 -1.189080e-39
7.100000e-01 -1.248722e-39
7.200003e-01 -1.272641e-39
7.299995e-01 -1.254947e-39
7.399998e-01 -1.190410e-39
7.500000e-01 -1.074740e-39
7.600002e-01 -9.048226e-40
7.699995e-01 -6.790566e-40
7.799997e-01 -3.975806e-40
7.900000e-01 -6.251613e-41
8.000002e-01 3.218152e-40
8.099995e-01 7.487614e-40
8.199997e-01 1.209228e-39
8.299999e-01 1.691697e-39
8.400002e-01 2.182273e-39
8.499994e-01 2.664849e-39
8.599997e-01 3.121384e-39
8.699999e-01 3.532231e-39
8.800001e-01 3.876660e-39
8.899994e-01 4.133447e-39
8.999996e-01 4.281442e-39
9.099998e-01 4.300463e-39
9.200001e-01 4.172072e-39
9.299994e-01 3.880418e-39
9.399996e-01 3.413230e-39
9.499998e-01 2.762692e-39
9.600000e-01 1.926280e-39
9.700003e-01 9.076378e-40
9.799995e-01 -2.827302e-40
9.899998e-01 -1.626938e-39
1.000000e+00 -3.099288e-39
1.010000e+00 -4.666154e-39
1.020000e+00 -6.286061e-39
1.030000e+00 -7.910082e-39
1.040000e+00 -9.482546e-39
1.050000e+00 -1.094203e-38
1.059999e+00 -1.222273e-38
1.070000e+00 -1.325624e-38
1.080000e+00 -1.397342e-38
1.090000e+00 -1.430683e-38
1.099999e+00 -1.419322e-38
1.110000e+00 -1.357633e-38
1.120000e+00 -1.240966e-38
1.130000e+00 -1.065952e-38
1.139999e+00 -8.307770e-39
1.150000e+00 -5.354560e-39
1.160000e+00 -1.820731e-39
1.170000e+00 2.250146e-39
1.179999e+00 6.790321e-39
1.190000e+00 1.170695e-38
1.200000e+00 1.688203e-38
1.210000e+00 2.217313e-38
1.220000e+00 2.741501e-38
1.230000e+00 3.242243e-38
1.240000e+00 3.699376e-38
1.250000e+00 4.091573e-38
1.260000e+00 4.396939e-38
1.270000e+00 4.593660e-38
1.280000e+00 4.660765e-38
1.290000e+00 4.578972e-38
1.300000e+00 4.331532e-38
1.309999e+00 3.905151e-38
1.320000e+00 3.290871e-38
1.330000e+00 2.484956e-38
1.340000e+00 1.489669e-38
1.349999e+00 3.139824e-39
1.360000e+00 -1.025873e-38
1.370000e+00 -2.506029e-38
1.380000e+00 -4.094809e-38
1.389999e+00 -5.752784e-38
1.400000e+00 -7.433155e-38
1.410000e+00 -9.082364e-38
1.420000e+00 -1.064105e-37
1.429999e+00 -1.204533e-37
1.440000e+00 -1.322835e-37
1.450000e+00 -1.412222e-37
1.460000e+00 -1.466007e-37
1.469999e+00 -1.477855e-37
1.480000e+00 -1.442030e-37
1.490000e+00 -1.353669e-37
1.500000e+00 -1.209052e-37
1.510000e+00 -1.005872e-37
1.520000e+00 -7.434876e-38
1.530000e+00 -4.231517e-38
1.540000e+00 -4.821051e-39
1.550000e+00 3.757566e-38
1.559999e+00 8.408356e-38
1.570000e+00 1.336761e-37
1.580000e+00 1.850965e-37
1.590000e+00 2.368709e-37
1.599999e+00 2.873316e-37
1.610000e+00 3.346471e-37
1.620000e+00 3.768647e-37
1.630000e+00 4.119600e-37
1.639999e+00 4.378945e-37
1.650000e+00 4.526833e-37
1.660000e+00 4.544659e-37
1.670000e+00 4.415841e-37
1.679999e+00 4.126609e-37
1.690000e+00 3.666820e-37
1.700000e+00 3.030704e-37
1.710000e+00 2.217607e-37
1.719999e+00 1.232629e-37
1.730000e+00 8.713743e-39
1.740000e+00 -1.200854e-37
1.750000e+00 -2.606460e-37
1.760000e+00 -4.097955e-37
1.770000e+00 -5.636974e-37
1.780000e+00 -7.178997e-37
1.790000e+00 -8.674084e-37
1.800000e+00 -1.006786e-36
1.809999e+00 -1.130281e-36
1.820000e+00 -1.231975e-36
1.830000e+00 -1.305962e-36
1.840000e+00 -1.346542e-36
1.849999e+00 -1.348434e-36
1.860000e+00 -1.306994e-36
1.870000e+00 -1.218450e-36
1.880000e+00 -1.080122e-36
1.889999e+00 -8.906381e-37
1.900000e+00 -6.501356e-37
1.910000e+00 -3.604280e-37
1.920000e+00 -2.514492e-38
1.929999e+00 3.501779e-37
1.940000e+00 7.580600e-37
1.950000e+00 1.189095e-36
1.960000e+00 1.632033e-36
1.969999e+00 2.073941e-36
1.980000e+00 2.500426e-36
1.990000e+00 2.895949e-36
2.000000e+00 3.244181e-36
2.010000e+00 3.528468e-36
2.020000e+00 3.732326e-36
2.030000e+00 3.839992e-36
2.040000e+00 3.837043e-36
2.050000e+00 3.710995e-36
2.059999e+00 3.451937e-36
2.070000e+00 3.053157e-36
2.080000e+00 2.511709e-36
2.090000e+00 1.828937e-36
2.099999e+00 1.010921e-36
2.110000e+00 6.880114e-38
2.120000e+00 -9.810122e-37
2.130000e+00 -2.116777e-36
2.139999e+00 -3.311549e-36
2.150000e+00 -4.533455e-36
2.160000e+00 -5.746208e-36
2.170000e+00 -6.909780e-36
2.179999e+00 -7.981300e-36
2.190000e+00 -8.916134e-36
2.200000e+00 -9.669141e-36
2.210000e+00 -1.019610e-35
2.219999e+00 -1.045524e-35
2.230000e+00 -1.040888e-35
2.240000e+00 -1.002513e-35
2.250000e+00 -9.279510e-36
2.260000e+00 -8.156625e-36
2.270000e+00 -6.651636e-36
2.280000e+00 -4.771576e-36
2.290000e+00 -2.536416e-36
2.300000e+00 2.014780e-38
2.309999e+00 2.850354e-36
2.320000e+00 5.892327e-36
2.330000e+00 9.070641e-36
2.340000e+00 1.229725e-35
2.349999e+00 1.547304e-35
2.360000e+00 1.848986e-35
2.370000e+00 2.123306e-35
2.380000e+00 2.358461e-35
2.389999e+00 2.542652e-35
2.400000e+00 2.664481e-35
2.410000e+00 2.713360e-35
2.420000e+00 2.679949e-35
2.429999e+00 2.556601e-35
2.440000e+00 2.337798e-35
2.450000e+00 2.020550e-35
2.460000e+00 1.604782e-35
2.469999e+00 1.093641e-35
2.480000e+00 4.937402e-36
2.490000e+00 -1.846780e-36
2.500000e+00 -9.276976e-36
2.510000e+00 -1.717791e-35
2.520000e+00 -2.534003e-35
2.530000e+00 -3.352286e-35
2.540000e+00 -4.145949e-35
2.550000e+00 -4.886268e-35
2.559999e+00 -5.543220e-35
2.570000e+00 -6.086332e-35
2.580000e+00 -6.485641e-35
2.590000e+00 -6.712761e-35
2.599999e+00 -6.741991e-35
2.610000e+00 -6.551451e-35
2.620000e+00 -6.124243e-35
2.630000e+00 -5.449536e-35
2.639999e+00 -4.523606e-35
2.650000e+00 -3.350715e-35
2.660000e+00 -1.943843e-35
2.670000e+00 -3.252116e-36
2.679999e+00 1.473464e-35
2.690000e+00 3.410994e-35
2.700000e+00 5.437064e-35
2.710000e+00 7.492921e-35
2.719999e+00 9.512426e-35
2.730000e+00 1.142344e-34
2.740000e+00 1.314963e-34
2.750000e+00 1.461253e-34
2.760000e+00 1.573400e-34
2.770000e+00 1.643882e-34
2.780000e+00 1.665763e-34
2.790000e+00 1.632986e-34
2.800000e+00 1.540676e-34
2.809999e+00 1.385441e-34
2.820000e+00 1.165644e-34
2.830000e+00 8.816633e-35
2.840000e+00 5.361025e-35
2.849999e+00 1.339505e-35
2.860000e+00 -3.173129e-35
2.870000e+00 -8.076943e-35
2.880000e+00 -1.324730e-34
2.889999e+00 -1.853639e-34
2.900000e+00 -2.377546e-34
2.910000e+00 -2.877823e-34
2.920000e+00 -3.334513e-34
2.929999e+00 -3.726849e-34
2.940000e+00 -4.033870e-34
2.950000e+00 -4.235102e-34
2.960000e+00 -4.311302e-34
2.969999e+00 -4.245255e-34
2.980000e+00 -4.022590e-34
2.990000e+00 -3.632588e-34
3.000000e+00 -3.068977e-34
3.010000e+00 -2.330657e-34
3.020000e+00 -1.422346e-34
3.030000e+00 -3.550943e-35
3.040000e+00 8.533303e-35
3.050000e+00 2.178256e-34
3.059999e+00 3.588107e-34
3.070000e+00 5.044675e-34
3.080000e+00 6.503569e-34
3.090000e+00 7.915008e-34
3.099999e+00 9.224809e-34
3.110000e+00 1.037570e-33
3.120000e+00 1.130880e-33
3.130000e+00 1.196549e-33