-8.000000e+00 0.000000e+00
-7.990000e+00 0.000000e+00
-7.980000e+00 0.000000e+00
-7.970000e+00 0.000000e+00
-7.960000e+00 0.000000e+00
-7.950000e+00 0.000000e+00
-7.940000e+00 -7.458453e-39
-7.930000e+00 -6.991712e-33
-7.920000e+00 -1.031782e-31
-7.910000e+00 -8.101836e-31
-7.900000e+00 -4.495786e-30
-7.890000e+00 -1.976507e-29
-7.880000e+00 -7.320554e-29
-7.870000e+00 -2.372815e-28
-7.860000e+00 -6.905590e-28
-7.850000e+00 -1.837892e-27
-7.840000e+00 -4.534802e-27
-7.830000e+00 -1.048296e-26
-7.820000e+00 -2.289295e-26
-7.810000e+00 -4.754605e-26
-7.800000e+00 -9.442779e-26
-7.790000e+00 -1.801497e-25
-7.780000e+00 -3.314172e-25
-7.770000e+00 -5.898419e-25
-7.760000e+00 -1.018414e-24
-7.750000e+00 -1.709964e-24
-7.740000e+00 -2.797909e-24
-7.730000e+00 -4.469510e-24
-7.720000e+00 -6.981821e-24
-7.710000e+00 -1.068026e-23
-7.700000e+00 -1.601959e-23
-7.690000e+00 -2.358687e-23
-7.680000e+00 -3.412571e-23
-7.670000e+00 -4.856038e-23
-7.660000e+00 -6.801904e-23
-7.650000e+00 -9.385329e-23
-7.640000e+00 -1.276533e-22
-7.630000e+00 -1.712547e-22
-7.620000e+00 -2.267364e-22
-7.610000e+00 -2.964049e-22
-7.600000e+00 -3.827644e-22
-7.590000e+00 -4.884681e-22
-7.580000e+00 -6.162520e-22
-7.570000e+00 -7.688442e-22
-7.560000e+00 -9.488586e-22
-7.550000e+00 -1.158654e-21
-7.540000e+00 -1.400185e-21
-7.530000e+00 -1.674821e-21
-7.520000e+00 -1.983152e-21
-7.510000e+00 -2.324773e-21
-7.500000e+00 -2.698054e-21
-7.490000e+00 -3.099905e-21
-7.480000e+00 -3.525537e-21
-7.470000e+00 -3.968206e-21
-7.460000e+00 -4.418995e-21
-7.450000e+00 -4.866570e-21
-7.440000e+00 -5.296982e-21
-7.430000e+00 -5.693518e-21
-7.420000e+00 -6.036509e-21
-7.410000e+00 -6.303344e-21
-7.400000e+00 -6.468400e-21
-7.390000e+00 -6.503185e-21
-7.380000e+00 -6.376559e-21
-7.370000e+00 -6.055115e-21
-7.360000e+00 -5.503761e-21
-7.350000e+00 -4.686529e-21
-7.340000e+00 -3.567619e-21
-7.330000e+00 -2.112870e-21
-7.320000e+00 -2.914050e-22
-7.310000e+00 1.922193e-21
-7.300000e+00 4.545379e-21
-7.290000e+00 7.584732e-21
-7.280000e+00 1.103270e-20
-7.270000e+00 1.486397e-20
-7.260000e+00 1.903163e-20
-7.250000e+00 2.346330e-20
-7.240000e+00 2.805726e-20
-7.230000e+00 3.267899e-20
-7.220000e+00 3.715825e-20
-7.210000e+00 4.128724e-20
-7.200000e+00 4.481975e-20
-7.190000e+00 4.747265e-20
-7.180000e+00 4.892847e-20
-7.170000e+00 4.884222e-20
-7.160000e+00 4.684892e-20
-7.150000e+00 4.257639e-20
-7.140000e+00 3.566055e-20
-7.130000e+00 2.576399e-20
-7.120000e+00 1.259869e-20
-7.110000e+00 -4.048778e-21
-7.100000e+00 -2.428904e-20
-7.090000e+00 -4.810024e-20
-7.080000e+00 -7.529759e-20
-7.070000e+00 -1.055040e-19
-7.060000e+00 -1.381230e-19
-7.050000e+00 -1.723158e-19
-7.040000e+00 -2.069856e-19
-7.030000e+00 -2.407709e-19
-7.020000e+00 -2.720475e-19
-7.010000e+00 -2.989490e-19
-7.000000e+00 -3.193977e-19
-6.990000e+00 -3.311541e-19
-6.980000e+00 -3.318890e-19
-6.970000e+00 -3.192668e-19
-6.960000e+00 -2.910516e-19
-6.950000e+00 -2.452329e-19
-6.940000e+00 -1.801612e-19
-6.930000e+00 -9.469595e-20
-6.920000e+00 1.163976e-20
-6.910000e+00 1.385033e-19
-6.900000e+00 2.845889e-19
-6.890000e+00 4.474949e-19
-6.880000e+00 6.236189e-19
-6.870000e+00 8.080870e-19
-6.860000e+00 9.947287e-19
-6.850000e+00 1.176105e-18
-6.840000e+00 1.343597e-18
-6.830000e+00 1.487574e-18
-6.820000e+00 1.597621e-18
-6.810000e+00 1.662864e-18
-6.800000e+00 1.672350e-18
-6.790000e+00 1.615519e-18
-6.780000e+00 1.482736e-18
-6.770000e+00 1.265862e-18
-6.760000e+00 9.588800e-19
-6.750000e+00 5.585143e-19
-6.740000e+00 6.485429e-20
-6.730000e+00 -5.180837e-19
-6.720000e+00 -1.181848e-18
-6.710000e+00 -1.913181e-18
-6.700000e+00 -2.693769e-18
-6.690000e+00 -3.500179e-18
-6.680000e+00 -4.304018e-18
-6.670000e+00 -5.072315e-18
-6.660000e+00 -5.768155e-18
-6.650000e+00 -6.351621e-18
-6.640000e+00 -6.780968e-18
-6.630000e+00 -7.014063e-18
-6.620000e+00 -7.010129e-18
-6.610000e+00 -6.731595e-18
-6.600000e+00 -6.146166e-18
-6.590000e+00 -5.229016e-18
-6.580000e+00 -3.964877e-18
-6.570000e+00 -2.350179e-18
-6.560000e+00 -3.949627e-19
-6.550000e+00 1.875579e-18
-6.540000e+00 4.419750e-18
-6.530000e+00 7.178716e-18
-6.520000e+00 1.007632e-17
-6.510000e+00 1.301971e-17
-6.500000e+00 1.590061e-17
-6.490000e+00 1.859751e-17
-6.480000e+00 2.097870e-17
-6.470000e+00 2.290607e-17
-6.460000e+00 2.423978e-17
-6.450000e+00 2.484357e-17
-6.440000e+00 2.459079e-17
-6.430000e+00 2.337068e-17
-6.420000e+00 2.109503e-17
-6.410000e+00 1.770469e-17
-6.400000e+00 1.317596e-17
-6.390000e+00 7.526200e-18
-6.380000e+00 8.187542e-19
-6.370000e+00 -6.833527e-18
-6.360000e+00 -1.526598e-17
-6.350000e+00 -2.426197e-17
-6.340000e+00 -3.355437e-17
-6.330000e+00 -4.282953e-17
-6.320000e+00 -5.173339e-17
-6.310000e+00 -5.988005e-17
-6.300000e+00 -6.686282e-17
-6.290000e+00 -7.226696e-17
-6.280000e+00 -7.568509e-17
-6.270000e+00 -7.673359e-17
-6.260000e+00 -7.507041e-17
-6.250000e+00 -7.041316e-17
-6.240000e+00 -6.255792e-17
-6.230000e+00 -5.139573e-17
-6.220000e+00 -3.692970e-17
-6.210000e+00 -1.928720e-17
-6.200000e+00 1.268867e-18
-6.190000e+00 2.433434e-17
-6.180000e+00 4.936167e-17
-6.170000e+00 7.566362e-17
-6.160000e+00 1.024225e-16
-6.150000e+00 1.287057e-16
-6.140000e+00 1.534866e-16
-6.130000e+00 1.756724e-16
-6.120000e+00 1.941366e-16
-6.110000e+00 2.077578e-16
-6.100000e+00 2.154610e-16
-6.090000e+00 2.162630e-16
-6.080000e+00 2.093189e-16
-6.070000e+00 1.939696e-16
-6.060000e+00 1.697851e-16
-6.050000e+00 1.366075e-16
-6.040000e+00 9.458646e-17
-6.030000e+00 4.420742e-17
-6.020000e+00 -1.368941e-17
-6.010000e+00 -7.789995e-17
-6.000000e+00 -1.468610e-16
-5.990000e+00 -2.186666e-16
-5.980000e+00 -2.911010e-16
-5.970000e+00 -3.616839e-16
-5.960000e+00 -4.277310e-16
-5.950000e+00 -4.864276e-16
-5.940000e+00 -5.349144e-16
-5.930000e+00 -5.703842e-16
-5.920000e+00 -5.901839e-16
-5.910000e+00 -5.919246e-16
-5.900000e+00 -5.735902e-16
-5.890000e+00 -5.336446e-16
-5.880000e+00 -4.711332e-16
-5.870000e+00 -3.857697e-16
-5.860000e+00 -2.780140e-16
-5.850000e+00 -1.491265e-16
-5.840000e+00 -1.201608e-18
-5.830000e+00 1.628258e-16
-5.820000e+00 3.391995e-16
-5.810000e+00 5.233941e-16
-5.800000e+00 7.101971e-16
-5.790000e+00 8.938190e-16
-5.780000e+00 1.068036e-15
-5.770000e+00 1.226356e-15
-5.760000e+00 1.362214e-15
-5.750000e+00 1.469174e-15
-5.740000e+00 1.541154e-15
-5.730000e+00 1.572655e-15
-5.720000e+00 1.558981e-15
-5.710000e+00 1.496455e-15
-5.700000e+00 1.382622e-15
-5.690000e+00 1.216417e-15
-5.680000e+00 9.983019e-16
-5.670000e+00 7.303648e-16
-5.660000e+00 4.163757e-16
-5.650000e+00 6.177811e-17
-5.640000e+00 -3.263613e-16
-5.630000e+00 -7.394630e-16
-5.620000e+00 -1.167609e-15
-5.610000e+00 -1.599755e-15
-5.600000e+00 -2.024011e-15
-5.590000e+00 -2.427948e-15
-5.580000e+00 -2.798954e-15
-5.570000e+00 -3.124595e-15
-5.560000e+00 -3.393008e-15
-5.550000e+00 -3.593287e-15
-5.540000e+00 -3.715849e-15
-5.530000e+00 -3.752778e-15
-5.520000e+00 -3.698137e-15
-5.510000e+00 -3.548202e-15
-5.500000e+00 -3.301651e-15
-5.490000e+00 -2.959695e-15
-5.480000e+00 -2.526083e-15
-5.470000e+00 -2.007059e-15
-5.460000e+00 -1.411229e-15
-5.450000e+00 -7.493257e-16
-5.440000e+00 -3.392151e-17
-5.430000e+00 7.209323e-16
-5.420000e+00 1.500137e-15
-5.410000e+00 2.287998e-15
-5.400000e+00 3.068700e-15
-5.390000e+00 3.826798e-15
-5.380000e+00 4.547642e-15
-5.370000e+00 5.217835e-15
-5.360000e+00 5.825544e-15
-5.350000e+00 6.360807e-15
-5.340000e+00 6.815646e-15
-5.330000e+00 7.184228e-15
-5.320000e+00 7.462690e-15
-5.310000e+00 7.649041e-15
-5.300000e+00 7.742849e-15
-5.290000e+00 7.744824e-15
-5.280000e+00 7.656364e-15
-5.270000e+00 7.478917e-15
-5.260000e+00 7.213468e-15
-5.250000e+00 6.859869e-15
-5.240000e+00 6.416318e-15
-5.230000e+00 5.878790e-15
-5.220000e+00 5.240717e-15
-5.210000e+00 4.492700e-15
-5.200000e+00 3.622516e-15
-5.190000e+00 2.615290e-15
-5.180000e+00 1.453964e-15
-5.170000e+00 1.199520e-16
-5.160000e+00 -1.405720e-15
-5.150000e+00 -3.141266e-15
-5.140000e+00 -5.102508e-15
-5.130000e+00 -7.301213e-15
-5.120000e+00 -9.742958e-15
-5.110000e+00 -1.242530e-14
-5.100000e+00 -1.533555e-14
-5.090000e+00 -1.844880e-14
-5.080000e+00 -2.172607e-14
-5.070000e+00 -2.511269e-14
-5.060000e+00 -2.853702e-14
-5.050000e+00 -3.191001e-14
-5.040000e+00 -3.512482e-14
-5.030000e+00 -3.805756e-14
-5.020000e+00 -4.056879e-14
-5.010000e+00 -4.250568e-14
-5.000000e+00 -4.370536e-14
-4.990000e+00 -4.399885e-14
-4.980000e+00 -4.321635e-14
-4.970000e+00 -4.119276e-14
-4.960000e+00 -3.777472e-14
-4.950000e+00 -3.282758e-14
-4.940000e+00 -2.624307e-14
-4.930000e+00 -1.794710e-14
-4.920000e+00 -7.907823e-15
-4.910000e+00 3.856895e-15
-4.900000e+00 1.727305e-14
-4.890000e+00 3.220385e-14
-4.880000e+00 4.844579e-14
-4.870000e+00 6.572516e-14
-4.860000e+00 8.369730e-14
-4.850000e+00 1.019473e-13
-4.840000e+00 1.199943e-13
-4.830000e+00 1.372968e-13
-4.820000e+00 1.532623e-13
-4.810000e+00 1.672589e-13
-4.800000e+00 1.786294e-13
-4.790000e+00 1.867094e-13
-4.780000e+00 1.908452e-13
-4.770000e+00 1.904164e-13
-4.760000e+00 1.848591e-13
-4.750000e+00 1.736888e-13
-4.740000e+00 1.565252e-13
-4.730000e+00 1.331162e-13
-4.720000e+00 1.033608e-13
-4.710000e+00 6.732877e-14
-4.700000e+00 2.527976e-14
-4.690000e+00 -2.232390e-14
-4.680000e+00 -7.480779e-14
-4.670000e+00 -1.312807e-13
-4.660000e+00 -1.906376e-13
-4.650000e+00 -2.515683e-13
-4.640000e+00 -3.125738e-13
-4.630000e+00 -3.719883e-13
-4.620000e+00 -4.280126e-13
-4.610000e+00 -4.787487e-13
-4.600000e+00 -5.222476e-13
-4.590000e+00 -5.565577e-13
-4.580000e+00 -5.797830e-13
-4.570000e+00 -5.901420e-13
-4.560000e+00 -5.860304e-13
-4.550000e+00 -5.660861e-13
-4.540000e+00 -5.292511e-13
-4.530000e+00 -4.748310e-13
-4.520000e+00 -4.025543e-13
-4.510000e+00 -3.126167e-13
-4.500000e+00 -2.057236e-13
-4.490000e+00 -8.311850e-14
-4.480000e+00 5.340102e-14
-4.470000e+00 2.014820e-13
-4.460000e+00 3.582295e-13
-4.450000e+00 5.202377e-13
-4.440000e+00 6.836378e-13
-4.430000e+00 8.441654e-13
-4.420000e+00 9.972416e-13
-4.410000e+00 1.138073e-12
-4.400000e+00 1.261769e-12
-4.390000e+00 1.363465e-12
-4.380000e+00 1.438463e-12
-4.370000e+00 1.482375e-12
-4.360000e+00 1.491275e-12
-4.350000e+00 1.461845e-12
-4.340000e+00 1.391523e-12
-4.330000e+00 1.278636e-12
-4.320000e+00 1.122523e-12
-4.310000e+00 9.236425e-13
-4.300000e+00 6.836494e-13
-4.290000e+00 4.054568e-13
-4.280000e+00 9.325864e-14
-4.270000e+00 -2.474817e-13
-4.260000e+00 -6.100692e-13
-4.250000e+00 -9.866645e-13
-4.240000e+00 -1.368402e-12
-4.230000e+00 -1.745544e-12
-4.220000e+00 -2.107686e-12
-4.210000e+00 -2.443973e-12
-4.200000e+00 -2.743366e-12
-4.190000e+00 -2.994930e-12
-4.180000e+00 -3.188127e-12
-4.170000e+00 -3.313144e-12
-4.160000e+00 -3.361214e-12
-4.150000e+00 -3.324926e-12
-4.140000e+00 -3.198539e-12
-4.130000e+00 -2.978266e-12
-4.120000e+00 -2.662521e-12
-4.110000e+00 -2.252138e-12
-4.100000e+00 -1.750525e-12
-4.090000e+00 -1.163777e-12
-4.080000e+00 -5.007119e-13
-4.070000e+00 2.271597e-13
-4.060000e+00 1.005739e-12
-4.050000e+00 1.818517e-12
-4.040000e+00 2.646842e-12
-4.030000e+00 3.470246e-12
-4.020000e+00 4.266865e-12
-4.010000e+00 5.013907e-12
-4.000000e+00 5.688183e-12
-3.990000e+00 6.266699e-12
-3.980000e+00 6.727263e-12
-3.970000e+00 7.049136e-12
-3.960000e+00 7.213675e-12
-3.950000e+00 7.204960e-12
-3.940000e+00 7.010420e-12
-3.930000e+00 6.621376e-12
-3.920000e+00 6.033550e-12
-3.910000e+00 5.247481e-12
-3.900000e+00 4.268830e-12
-3.890000e+00 3.108603e-12
-3.880000e+00 1.783220e-12
-3.870000e+00 3.144547e-13
-3.860000e+00 -1.270757e-12
-3.850000e+00 -2.940663e-12
-3.840000e+00 -4.659200e-12
-3.830000e+00 -6.386616e-12
-3.820000e+00 -8.080247e-12
-3.810000e+00 -9.695429e-12
-3.800000e+00 -1.118647e-11
-3.790000e+00 -1.250778e-11
-3.780000e+00 -1.361500e-11
-3.770000e+00 -1.446623e-11
-3.760000e+00 -1.502321e-11
-3.750000e+00 -1.525252e-11
-3.740000e+00 -1.512672e-11
-3.730000e+00 -1.462541e-11
-3.720000e+00 -1.373616e-11
-3.710000e+00 -1.245532e-11
-3.700000e+00 -1.078858e-11
-3.690000e+00 -8.751462e-12
-3.680000e+00 -6.369450e-12
-3.670000e+00 -3.677983e-12
-3.660000e+00 -7.221223e-13
-3.650000e+00 2.443991e-12
-3.640000e+00 5.757958e-12
-3.630000e+00 9.150201e-12
-3.620000e+00 1.254524e-11
-3.610000e+00 1.586327e-11
-3.600000e+00 1.902180e-11
-3.590000e+00 2.193764e-11
-3.580000e+00 2.452872e-11
-3.570000e+00 2.671632e-11
-3.560000e+00 2.842707e-11
-3.550000e+00 2.959496e-11
-3.540000e+00 3.016343e-11
-3.530000e+00 3.008714e-11
-3.520000e+00 2.933363e-11
-3.510000e+00 2.788474e-11
-3.500000e+00 2.573776e-11
-3.490000e+00 2.290622e-11
-3.480000e+00 1.942033e-11
-3.470000e+00 1.532702e-11
-3.460000e+00 1.068965e-11
-3.450000e+00 5.587129e-12
-3.440000e+00 1.128097e-13
-3.430000e+00 -5.627175e-12
-3.420000e+00 -1.151588e-11
-3.410000e+00 -1.742789e-11
-3.400000e+00 -2.323195e-11
-3.390000e+00 -2.879396e-11
-3.380000e+00 -3.397993e-11
-3.370000e+00 -3.865935e-11
-3.360000e+00 -4.270847e-11
-3.350000e+00 -4.601342e-11
-3.340000e+00 -4.847344e-11
-3.330000e+00 -5.000379e-11
-3.320000e+00 -5.053854e-11
-3.310000e+00 -5.003264e-11
-3.300000e+00 -4.846393e-11
-3.290000e+00 -4.583457e-11
-3.280000e+00 -4.217178e-11
-3.270000e+00 -3.752814e-11
-3.260000e+00 -3.198121e-11
-3.250000e+00 -2.563248e-11
-3.240000e+00 -1.860571e-11
-3.230000e+00 -1.104483e-11
-3.220000e+00 -3.110744e-12
-3.210000e+00 5.021691e-12
-3.200000e+00 1.316779e-11
-3.190000e+00 2.113725e-11
-3.180000e+00 2.873859e-11
-3.170000e+00 3.578431e-11
-3.160000e+00 4.209530e-11
-3.150000e+00 4.750592e-11
-3.140000e+00 5.186883e-11
-3.130000e+00 5.505926e-11
-3.120000e+00 5.697894e-11
-3.110000e+00 5.756005e-11
-3.100000e+00 5.676768e-11
-3.090000e+00 5.460233e-11
-3.080000e+00 5.110129e-11
-3.070000e+00 4.633905e-11
-3.060000e+00 4.042721e-11
-3.050000e+00 3.351293e-11
-3.040000e+00 2.577676e-11
-3.030000e+00 1.742953e-11
-3.020000e+00 8.708299e-12
-3.010000e+00 -1.286640e-13
-3.000000e+00 -8.807483e-12
-2.990000e+00 -1.704484e-11
-2.980000e+00 -2.455496e-11
-2.970000e+00 -3.105691e-11
-2.960000e+00 -3.628179e-11
-2.950000e+00 -3.998043e-11
-2.940000e+00 -4.193083e-11
-2.930000e+00 -4.194517e-11
-2.920000e+00 -3.987674e-11
-2.910000e+00 -3.562596e-11
-2.900000e+00 -2.914570e-11
-2.890000e+00 -2.044575e-11
-2.880000e+00 -9.596090e-12
-2.870000e+00 3.270671e-12
-2.860000e+00 1.795867e-11
-2.850000e+00 3.420883e-11
-2.840000e+00 5.170100e-11
-2.830000e+00 7.005676e-11
-2.820000e+00 8.884402e-11
-2.810000e+00 1.075833e-10
-2.800000e+00 1.257541e-10
-2.790000e+00 1.428040e-10
-2.780000e+00 1.581577e-10
-2.770000e+00 1.712273e-10
-2.760000e+00 1.814232e-10
-2.750000e+00 1.881666e-10
-2.740000e+00 1.909003e-10
-2.730000e+00 1.891020e-10
-2.720000e+00 1.822962e-10
-2.710000e+00 1.700658e-10
-2.700000e+00 1.520639e-10
-2.690000e+00 1.280252e-10
-2.680000e+00 9.777540e-11
-2.670000e+00 6.124042e-11
-2.660000e+00 1.845471e-11
-2.650000e+00 -3.043284e-11
-2.640000e+00 -8.515338e-11
-2.630000e+00 -1.453142e-10
-2.620000e+00 -2.103980e-10
-2.610000e+00 -2.797617e-10
-2.600000e+00 -3.526380e-10
-2.590000e+00 -4.281391e-10
-2.580000e+00 -5.052619e-10
-2.570000e+00 -5.828939e-10
-2.560000e+00 -6.598218e-10
-2.550000e+00 -7.347433e-10
-2.540000e+00 -8.062748e-10
-2.530000e+00 -8.729682e-10
-2.520000e+00 -9.333216e-10
-2.510000e+00 -9.857981e-10
-2.500000e+00 -1.028837e-09
-2.490000e+00 -1.060880e-09
-2.480000e+00 -1.080377e-09
-2.470000e+00 -1.085814e-09
-2.460000e+00 -1.075731e-09
-2.450000e+00 -1.048735e-09
-2.440000e+00 -1.003530e-09
-2.430000e+00 -9.389265e-10
-2.420000e+00 -8.538692e-10
-2.410000e+00 -7.474540e-10
-2.400000e+00 -6.189455e-10
-2.390000e+00 -4.677994e-10
-2.380000e+00 -2.936809e-10
-2.370000e+00 -9.648096e-11
-2.360000e+00 1.236622e-10
-2.350000e+00 3.663509e-10
-2.340000e+00 6.309034e-10
-2.330000e+00 9.163482e-10
-2.320000e+00 1.221399e-09
-2.310000e+00 1.544451e-09
-2.300000e+00 1.883557e-09
-2.290000e+00 2.236428e-09
-2.280000e+00 2.600410e-09
-2.270000e+00 2.972483e-09
-2.260000e+00 3.349252e-09
-2.250000e+00 3.726936e-09
-2.240000e+00 4.101365e-09
-2.230000e+00 4.467981e-09
-2.220000e+00 4.821835e-09
-2.210000e+00 5.157574e-09
-2.200000e+00 5.469468e-09
-2.190000e+00 5.751379e-09
-2.180000e+00 5.996806e-09
-2.170000e+00 6.198864e-09
-2.160000e+00 6.350294e-09
-2.150000e+00 6.443499e-09
-2.140000e+00 6.470521e-09
-2.130000e+00 6.423097e-09
-2.120000e+00 6.292642e-09
-2.110000e+00 6.070286e-09
-2.100000e+00 5.746899e-09
-2.090000e+00 5.313101e-09
-2.080000e+00 4.759294e-09
-2.070000e+00 4.075699e-09
-2.060000e+00 3.252377e-09
-2.050000e+00 2.279266e-09
-2.040000e+00 1.146204e-09
-2.030000e+00 -1.570246e-10
-2.020000e+00 -1.640646e-09
-2.010000e+00 -3.314876e-09
-2.000000e+00 -5.189860e-09
-1.990000e+00 -7.275640e-09
-1.980000e+00 -9.582122e-09
-1.970000e+00 -1.211901e-08
-1.960000e+00 -1.489577e-08
-1.950000e+00 -1.792159e-08
-1.940000e+00 -2.120531e-08
-1.930000e+00 -2.475542e-08
-1.920000e+00 -2.857995e-08
-1.910000e+00 -3.268649e-08
-1.900000e+00 -3.708209e-08
-1.890000e+00 -4.177327e-08
-1.880000e+00 -4.676592e-08
-1.870000e+00 -5.206525e-08
-1.860000e+00 -5.767592e-08
-1.850000e+00 -6.360172e-08
-1.840000e+00 -6.984572e-08
-1.830000e+00 -7.641032e-08
-1.820000e+00 -8.329704e-08
-1.810000e+00 -9.050662e-08
-1.800000e+00 -9.803890e-08
-1.790000e+00 -1.058931e-07
-1.780000e+00 -1.140672e-07
-1.770000e+00 -1.225591e-07
-1.760000e+00 -1.313651e-07
-1.750000e+00 -1.404812e-07
-1.740000e+00 -1.499026e-07
-1.730000e+00 -1.596237e-07
-1.720000e+00 -1.696386e-07
-1.710000e+00 -1.799404e-07
-1.700000e+00 -1.905218e-07
-1.690000e+00 -2.013755e-07
-1.680000e+00 -2.124932e-07
-1.670000e+00 -2.238669e-07
-1.660000e+00 -2.354880e-07
-1.650000e+00 -2.473486e-07
-1.640000e+00 -2.594398e-07
-1.630000e+00 -2.717538e-07
-1.620000e+00 -2.842829e-07
-1.610000e+00 -2.970193e-07
-1.600000e+00 -3.099564e-07
-1.590000e+00 -3.230880e-07
-1.580000e+00 -3.364087e-07
-1.570000e+00 -3.499138e-07
-1.560000e+00 -3.636001e-07
-1.550000e+00 -3.774651e-07
-1.540000e+00 -3.915074e-07
-1.530000e+00 -4.057275e-07
-1.520000e+00 -4.201269e-07
-1.510000e+00 -4.347086e-07
-1.500000e+00 -4.494771e-07
-1.490000e+00 -4.644389e-07
-1.480000e+00 -4.796016e-07
-1.470000e+00 -4.949754e-07
-1.460000e+00 -5.105707e-07
-1.450000e+00 -5.264015e-07
-1.440000e+00 -5.424819e-07
-1.430000e+00 -5.588290e-07
-1.420000e+00 -5.754608e-07
-1.410000e+00 -5.923972e-07
-1.400000e+00 -6.096607e-07
-1.390000e+00 -6.272742e-07
-1.380000e+00 -6.452623e-07
-1.370000e+00 -6.636520e-07
-1.360000e+00 -6.824711e-07
-1.350000e+00 -7.017492e-07
-1.340000e+00 -7.215170e-07
-1.330000e+00 -7.418058e-07
-1.320000e+00 -7.626489e-07
-1.310000e+00 -7.840808e-07
-1.300000e+00 -8.061369e-07
-1.290000e+00 -8.288517e-07
-1.280000e+00 -8.522630e-07
-1.270000e+00 -8.764076e-07
-1.260000e+00 -9.013239e-07
-1.250000e+00 -9.270494e-07
-1.240000e+00 -9.536233e-07
-1.230000e+00 -9.810843e-07
-1.220000e+00 -1.009471e-06
-1.210000e+00 -1.038822e-06
-1.200000e+00 -1.069177e-06
-1.190000e+00 -1.100574e-06
-1.180000e+00 -1.133049e-06
-1.170000e+00 -1.166643e-06
-1.160000e+00 -1.201390e-06
-1.150000e+00 -1.237329e-06
-1.140000e+00 -1.274495e-06
-1.130000e+00 -1.312922e-06
-1.120000e+00 -1.352644e-06
-1.110000e+00 -1.393693e-06
-1.100000e+00 -1.436104e-06
-1.090000e+00 -1.479905e-06
-1.080000e+00 -1.525126e-06
-1.070000e+00 -1.571795e-06
-1.060000e+00 -1.619943e-06
-1.050000e+00 -1.669593e-06
-1.040000e+00 -1.720771e-06
-1.030000e+00 -1.773502e-06
-1.020000e+00 -1.827811e-06
-1.010000e+00 -1.883719e-06
-1.000000e+00 -1.941247e-06
-9.900002e-01 -2.000422e-06
-9.800000e-01 -2.061260e-06
-9.700003e-01 -2.123785e-06
-9.600000e-01 -2.188018e-06
-9.500003e-01 -2.253982e-06
-9.400001e-01 -2.321700e-06
-9.300003e-01 -2.391192e-06
-9.200001e-01 -2.462485e-06
-9.100003e-01 -2.535604e-06
-9.000001e-01 -2.610579e-06
-8.900003e-01 -2.687435e-06
-8.800001e-01 -2.766204e-06
-8.700004e-01 -2.846925e-06
-8.600001e-01 -2.929626e-06
-8.500004e-01 -3.014356e-06
-8.400002e-01 -3.101151e-06
-8.299999e-01 -3.190057e-06
-8.200002e-01 -3.281124e-06
-8.099999e-01 -3.374407e-06
-8.000002e-01 -3.469958e-06
-7.900000e-01 -3.567838e-06
-7.800002e-01 -3.668114e-06
-7.700000e-01 -3.770848e-06
-7.600002e-01 -3.876114e-06
-7.500000e-01 -3.983987e-06
-7.400002e-01 -4.094544e-06
-7.300000e-01 -4.207865e-06
-7.200003e-01 -4.324041e-06
-7.100000e-01 -4.443153e-06
-7.000003e-01 -4.565296e-06
-6.900001e-01 -4.690566e-06
-6.800003e-01 -4.819052e-06
-6.700001e-01 -4.950859e-06
-6.600003e-01 -5.086088e-06
-6.500001e-01 -5.224838e-06
-6.400003e-01 -5.367216e-06
-6.300001e-01 -5.513326e-06
-6.200004e-01 -5.663278e-06
-6.100001e-01 -5.817174e-06
-6.000004e-01 -5.975130e-06
-5.900002e-01 -6.137255e-06
-5.800004e-01 -6.303655e-06
-5.700002e-01 -6.474443e-06
-5.599999e-01 -6.649730e-06
-5.500002e-01 -6.829627e-06
-5.400000e-01 -7.014250e-06
-5.300002e-01 -7.203706e-06
-5.200000e-01 -7.398109e-06
-5.100002e-01 -7.597574e-06
-5.000000e-01 -7.802213e-06
-4.900002e-01 -8.012139e-06
-4.800000e-01 -8.227470e-06
-4.700003e-01 -8.448319e-06
-4.600000e-01 -8.674797e-06
-4.500003e-01 -8.907029e-06
-4.400001e-01 -9.145130e-06
-4.300003e-01 -9.389223e-06
-4.200001e-01 -9.639426e-06
-4.100003e-01 -9.895869e-06
-4.000001e-01 -1.015866e-05
-3.900003e-01 -1.042795e-05
-3.800001e-01 -1.070385e-05
-3.700004e-01 -1.098651e-05
-3.600001e-01 -1.127604e-05
-3.500004e-01 -1.157259e-05
-3.400002e-01 -1.187631e-05
-3.300004e-01 -1.218733e-05
-3.200002e-01 -1.250581e-05
-3.099999e-01 -1.283188e-05
-3.000002e-01 -1.316572e-05
-2.900000e-01 -1.350747e-05
-2.800002e-01 -1.385728e-05
-2.700000e-01 -1.421534e-05
-2.600002e-01 -1.458181e-05
-2.500000e-01 -1.495686e-05
-2.400002e-01 -1.534067e-05
-2.300000e-01 -1.573342e-05
-2.200003e-01 -1.613529e-05
-2.100000e-01 -1.654649e-05
-2.000003e-01 -1.696719e-05
-1.900001e-01 -1.739762e-05
-1.800003e-01 -1.783796e-05
-1.700001e-01 -1.828844e-05
-1.600003e-01 -1.874924e-05
-1.500001e-01 -1.922062e-05
-1.400003e-01 -1.970277e-05
-1.300001e-01 -2.019593e-05
-1.200004e-01 -2.070034e-05
-1.100001e-01 -2.121622e-05
-1.000004e-01 -2.174383e-05
-9.000015e-02 -2.228340e-05
-8.000040e-02 -2.283519e-05
-7.000017e-02 -2.339945e-05
-5.999994e-02 -2.397643e-05
-5.000019e-02 -2.456640e-05
-3.999996e-02 -2.516963e-05
-3.000021e-02 -2.578635e-05
-1.999998e-02 -2.641690e-05
-1.000023e-02 -2.706149e-05
0.000000e+00 -2.772043e-05
1.000023e-02 -2.839400e-05
1.999950e-02 -2.908248e-05
2.999973e-02 -2.978615e-05
3.999996e-02 -3.050531e-05
5.000019e-02 -3.124027e-05
5.999947e-02 -3.199128e-05
6.999969e-02 -3.275870e-05
7.999992e-02 -3.354277e-05
9.000015e-02 -3.434385e-05
9.999943e-02 -3.516223e-05
1.099997e-01 -3.599822e-05
1.199999e-01 -3.685218e-05
1.300001e-01 -3.772437e-05
1.399994e-01 -3.861518e-05
1.499996e-01 -3.952491e-05
1.599998e-01 -4.045390e-05
1.700001e-01 -4.140253e-05
1.799994e-01 -4.237114e-05
1.899996e-01 -4.336009e-05
1.999998e-01 -4.436976e-05
2.100000e-01 -4.540050e-05
2.200003e-01 -4.645273e-05
2.299995e-01 -4.752682e-05
2.399998e-01 -4.862322e-05
2.500000e-01 -4.974224e-05
2.600002e-01 -5.088444e-05
2.699995e-01 -5.205013e-05
2.799997e-01 -5.323982e-05
2.900000e-01 -5.445389e-05
3.000002e-01 -5.569286e-05
3.099995e-01 -5.695713e-05
3.199997e-01 -5.824725e-05
3.299999e-01 -5.956362e-05
3.400002e-01 -6.090674e-05
3.499994e-01 -6.227714e-05
3.599997e-01 -6.367525e-05
3.699999e-01 -6.510161e-05
3.800001e-01 -6.655676e-05
3.899994e-01 -6.804118e-05
3.999996e-01 -6.955531e-05
4.099998e-01 -7.109976e-05
4.200001e-01 -7.267504e-05
4.299994e-01 -7.428166e-05
4.399996e-01 -7.592017e-05
4.499998e-01 -7.759103e-05
4.600000e-01 -7.929482e-05
4.700003e-01 -8.103212e-05
4.799995e-01 -8.280341e-05
4.899998e-01 -8.460924e-05
5.000000e-01 -8.645015e-05
5.100002e-01 -8.832666e-05
5.199995e-01 -9.023939e-05
5.299997e-01 -9.218876e-05
5.400000e-01 -9.417549e-05
5.500002e-01 -9.619999e-05
5.599995e-01 -9.826291e-05
5.699997e-01 -1.003648e-04
5.799999e-01 -1.025061e-04
5.900002e-01 -1.046876e-04
5.999994e-01 -1.069098e-04
6.099997e-01 -1.091733e-04
6.199999e-01 -1.114787e-04
6.300001e-01 -1.138265e-04
6.399994e-01 -1.162175e-04
6.499996e-01 -1.186522e-04
6.599998e-01 -1.211312e-04
6.700001e-01 -1.236552e-04
6.799994e-01 -1.262250e-04
6.899996e-01 -1.288409e-04
6.999998e-01 -1.315040e-04
7.100000e-01 -1.342146e-04
7.200003e-01 -1.369737e-04
7.299995e-01 -1.397817e-04
7.399998e-01 -1.426396e-04
7.500000e-01 -1.455478e-04
7.600002e-01 -1.485074e-04
7.699995e-01 -1.515188e-04
7.799997e-01 -1.545830e-04
7.900000e-01 -1.577006e-04
8.000002e-01 -1.608724e-04
8.099995e-01 -1.640991e-04
8.199997e-01 -1.673815e-04
8.299999e-01 -1.707204e-04
8.400002e-01 -1.741166e-04
8.499994e-01 -1.775709e-04
8.599997e-01 -1.810840e-04
8.699999e-01 -1.846567e-04
8.800001e-01 -1.882899e-04
8.899994e-01 -1.919844e-04
8.999996e-01 -1.957410e-04
9.099998e-01 -1.995604e-04
9.200001e-01 -2.034435e-04
9.299994e-01 -2.073912e-04
9.399996e-01 -2.114043e-04
9.499998e-01 -2.154834e-04
9.600000e-01 -2.196297e-04
9.700003e-01 -2.238439e-04
9.799995e-01 -2.281268e-04
9.899998e-01 -2.324792e-04
1.000000e+00 -2.369020e-04
1.010000e+00 -2.413961e-04
1.020000e+00 -2.459624e-04
1.030000e+00 -2.506016e-04
1.040000e+00 -2.553147e-04
1.050000e+00 -2.601024e-04
1.059999e+00 -2.649659e-04
1.070000e+00 -2.699057e-04
1.080000e+00 -2.749229e-04
1.090000e+00 -2.800183e-04
1.099999e+00 -2.851927e-04
1.110000e+00 -2.904471e-04
1.120000e+00 -2.957823e-04
1.130000e+00 -3.011992e-04
1.139999e+00 -3.066987e-04
1.150000e+00 -3.122817e-04
1.160000e+00 -3.179488e-04
1.170000e+00 -3.237012e-04
1.179999e+00 -3.295396e-04
1.190000e+00 -3.354652e-04
1.200000e+00 -3.414784e-04
1.210000e+00 -3.475801e-04
1.220000e+00 -3.537715e-04
1.230000e+00 -3.600533e-04
1.240000e+00 -3.664262e-04
1.250000e+00 -3.728915e-04
1.260000e+00 -3.794495e-04
1.270000e+00 -3.861013e-04
1.280000e+00 -3.928480e-04
1.290000e+00 -3.996903e-04
1.300000e+00 -4.066288e-04
1.309999e+00 -4.136648e-04
1.320000e+00 -4.207987e-04
1.330000e+00 -4.280316e-04
1.340000e+00 -4.353645e-04
1.349999e+00 -4.427981e-04
1.360000e+00 -4.503335e-04
1.370000e+00 -4.579709e-04
1.380000e+00 -4.657115e-04
1.389999e+00 -4.735565e-04
1.400000e+00 -4.815063e-04
1.410000e+00 -4.895620e-04
1.420000e+00 -4.977243e-04
1.429999e+00 -5.059941e-04
1.440000e+00 -5.143721e-04
1.450000e+00 -5.228593e-04
1.460000e+00 -5.314568e-04
1.469999e+00 -5.401645e-04
1.480000e+00 -5.489839e-04
1.490000e+00 -5.579158e-04
1.500000e+00 -5.669608e-04
1.510000e+00 -5.761197e-04
1.520000e+00 -5.853930e-04
1.530000e+00 -5.947822e-04
1.540000e+00 -6.042874e-04
1.550000e+00 -6.139092e-04
1.559999e+00 -6.236490e-04
1.570000e+00 -6.335070e-04
1.580000e+00 -6.434839e-04
1.590000e+00 -6.535806e-04
1.599999e+00 -6.637974e-04
1.610000e+00 -6.741353e-04
1.620000e+00 -6.845950e-04
1.630000e+00 -6.951764e-04
1.639999e+00 -7.058810e-04
1.650000e+00 -7.167090e-04
1.660000e+00 -7.276605e-04
1.670000e+00 -7.387368e-04
1.679999e+00 -7.499381e-04
1.690000e+00 -7.612649e-04
1.700000e+00 -7.727181e-04
1.710000e+00 -7.842976e-04
1.719999e+00 -7.960041e-04
1.730000e+00 -8.078379e-04
1.740000e+00 -8.197998e-04
1.750000e+00 -8.318895e-04
1.760000e+00 -8.441081e-04
1.770000e+00 -8.564559e-04
1.780000e+00 -8.689329e-04
1.790000e+00 -8.815399e-04
1.800000e+00 -8.942764e-04
1.809999e+00 -9.071433e-04
1.820000e+00 -9.201409e-04
1.830000e+00 -9.332693e-04
1.840000e+00 -9.465283e-04
1.849999e+00 -9.599188e-04
1.860000e+00 -9.734405e-04
1.870000e+00 -9.870935e-04
1.880000e+00 -1.000878e-03
1.889999e+00 -1.014794e-03
1.900000e+00 -1.028841e-03
1.910000e+00 -1.043020e-03
1.920000e+00 -1.057331e-03
1.929999e+00 -1.071773e-03
1.940000e+00 -1.086347e-03
1.950000e+00 -1.101052e-03
1.960000e+00 -1.115888e-03
1.969999e+00 -1.130855e-03
1.980000e+00 -1.145952e-03
1.990000e+00 -1.161181e-03
2.000000e+00 -1.176539e-03
2.010000e+00 -1.192027e-03
2.020000e+00 -1.207645e-03
2.030000e+00 -1.223392e-03
2.040000e+00 -1.239268e-03
2.050000e+00 -1.255273e-03
2.059999e+00 -1.271405e-03
2.070000e+00 -1.287664e-03
2.080000e+00 -1.304050e-03
2.090000e+00 -1.320562e-03
2.099999e+00 -1.337200e-03
2.110000e+00 -1.353963e-03
2.120000e+00 -1.370850e-03
2.130000e+00 -1.387860e-03
2.139999e+00 -1.404992e-03
2.150000e+00 -1.422247e-03
2.160000e+00 -1.439623e-03
2.170000e+00 -1.457118e-03
2.179999e+00 -1.474732e-03
2.190000e+00 -1.492465e-03
2.200000e+00 -1.510314e-03
2.210000e+00 -1.528279e-03
2.219999e+00 -1.546360e-03
2.230000e+00 -1.564553e-03
2.240000e+00 -1.582858e-03
2.250000e+00 -1.601275e-03
2.260000e+00 -1.619801e-03
2.270000e+00 -1.638434e-03
2.280000e+00 -1.657175e-03
2.290000e+00 -1.676021e-03
2.300000e+00 -1.694971e-03
2.309999e+00 -1.714022e-03
2.320000e+00 -1.733174e-03
2.330000e+00 -1.752425e-03
2.340000e+00 -1.771772e-03
2.349999e+00 -1.791215e-03
2.360000e+00 -1.810751e-03
2.370000e+00 -1.830377e-03
2.380000e+00 -1.850094e-03
2.389999e+00 -1.869898e-03
2.400000e+00 -1.889788e-03
2.410000e+00 -1.909761e-03
2.420000e+00 -1.929814e-03
2.429999e+00 -1.949947e-03
2.440000e+00 -1.970155e-03
2.450000e+00 -1.990438e-03
2.460000e+00 -2.010793e-03
2.469999e+00 -2.031218e-03
2.480000e+00 -2.051709e-03
2.490000e+00 -2.072264e-03
2.500000e+00 -2.092883e-03
2.510000e+00 -2.113558e-03
2.520000e+00 -2.134291e-03
2.530000e+00 -2.155079e-03
2.540000e+00 -2.175917e-03
2.550000e+00 -2.196803e-03
2.559999e+00 -2.217732e-03
2.570000e+00 -2.238705e-03
2.580000e+00 -2.259716e-03
2.590000e+00 -2.280763e-03
2.599999e+00 -2.301843e-03
2.610000e+00 -2.322952e-03
2.620000e+00 -2.344087e-03
2.630000e+00 -2.365245e-03
2.639999e+00 -2.386423e-03
2.650000e+00 -2.407616e-03
2.660000e+00 -2.428820e-03
2.670000e+00 -2.450033e-03
2.679999e+00 -2.471252e-03
2.690000e+00 -2.492470e-03
2.700000e+00 -2.513688e-03
2.710000e+00 -2.534897e-03
2.719999e+00 -2.556095e-03
2.730000e+00 -2.577281e-03
2.740000e+00 -2.598447e-03
2.750000e+00 -2.619591e-03
2.760000e+00 -2.640709e-03
2.770000e+00 -2.661795e-03
2.780000e+00 -2.682846e-03
2.790000e+00 -2.703858e-03
2.800000e+00 -2.724827e-03
2.809999e+00 -2.745746e-03
2.820000e+00 -2.766614e-03
2.830000e+00 -2.787424e-03
2.840000e+00 -2.808171e-03
2.849999e+00 -2.828853e-03
2.860000e+00 -2.849462e-03
2.870000e+00 -2.869998e-03
2.880000e+00 -2.890452e-03
2.889999e+00 -2.910821e-03
2.900000e+00 -2.931099e-03
2.910000e+00 -2.951282e-03