-8.000000e+00 0.000000e+00
-7.950000e+00 0.000000e+00
-7.900000e+00 0.000000e+00
-7.850000e+00 0.000000e+00
-7.800000e+00 0.000000e+00
-7.750000e+00 0.000000e+00
-7.700000e+00 0.000000e+00
-7.650000e+00 0.000000e+00
-7.600000e+00 0.000000e+00
-7.550000e+00 -2.802597e-45
-7.500000e+00 -4.149103e-32
-7.450000e+00 -1.075029e-30
-7.400000e+00 -1.473397e-29
-7.350000e+00 -1.257655e-28
-7.300000e+00 -7.243838e-28
-7.250000e+00 -2.968572e-27
-7.200000e+00 -8.885915e-27
-7.150000e+00 -1.925764e-26
-7.100000e+00 -2.757271e-26
-7.050000e+00 -1.328743e-26
-7.000000e+00 5.388069e-26
-6.950000e+00 1.847654e-25
-6.900000e+00 3.151995e-25
-6.850000e+00 2.469039e-25
-6.800000e+00 -3.411057e-25
-6.750000e+00 -1.620201e-24
-6.700000e+00 -2.846423e-24
-6.650000e+00 -1.481500e-24
-6.600000e+00 5.757914e-24
-6.550000e+00 1.708356e-23
-6.500000e+00 1.727205e-23
-6.450000e+00 -1.863761e-23
-6.400000e+00 -9.018063e-23
-6.350000e+00 -1.177039e-22
-6.300000e+00 4.660317e-23
-6.250000e+00 4.375701e-22
-6.200000e+00 6.892106e-22
-6.150000e+00 4.435618e-23
-6.100000e+00 -1.836997e-21
-6.050000e+00 -3.517743e-21
-6.000000e+00 -1.581290e-21
-5.950000e+00 6.243058e-21
-5.900000e+00 1.532506e-20
-5.850000e+00 1.212829e-20
-5.800000e+00 -1.541918e-20
-5.750000e+00 -5.611810e-20
-5.700000e+00 -6.331632e-20
-5.650000e+00 1.627309e-20
-5.600000e+00 1.690167e-19
-5.550000e+00 2.572332e-19
-5.500000e+00 8.217551e-20
-5.450000e+00 -3.970709e-19
-5.400000e+00 -8.427811e-19
-5.350000e+00 -6.248176e-19
-5.300000e+00 6.118581e-19
-5.250000e+00 2.224433e-18
-5.200000e+00 2.518353e-18
-5.150000e+00 3.776119e-21
-5.100000e+00 -4.575823e-18
-5.050000e+00 -7.397038e-18
-5.000000e+00 -3.843639e-18
-4.950000e+00 6.586121e-18
-4.900000e+00 1.683818e-17
-4.850000e+00 1.540797e-17
-4.800000e+00 -3.432370e-18
-4.750000e+00 -2.973529e-17
-4.700000e+00 -3.981454e-17
-4.650000e+00 -1.447534e-17
-4.600000e+00 3.809889e-17
-4.550000e+00 7.767352e-17
-4.500000e+00 5.925756e-17
-4.450000e+00 -2.283443e-17
-4.400000e+00 -1.142781e-16
-4.350000e+00 -1.341599e-16
-4.300000e+00 -4.579696e-17
-4.250000e+00 9.831396e-17
-4.200000e+00 1.919065e-16
-4.150000e+00 1.702081e-16
-4.100000e+00 6.847946e-17
-4.050000e+00 -3.544314e-17
-4.000000e+00 -1.450443e-16
-3.950000e+00 -3.646098e-16
-3.900000e+00 -7.020697e-16
-3.850000e+00 -8.095861e-16
-3.800000e+00 -5.359331e-17
-3.750000e+00 1.838538e-15
-3.700000e+00 3.916991e-15
-3.650000e+00 3.907174e-15
-3.600000e+00 -3.167797e-16
-3.550000e+00 -8.136282e-15
-3.500000e+00 -1.456296e-14
-3.450000e+00 -1.207172e-14
-3.400000e+00 3.651210e-15
-3.350000e+00 2.730993e-14
-3.300000e+00 4.277658e-14
-3.250000e+00 3.117447e-14
-3.200000e+00 -1.400670e-14
-3.150000e+00 -7.442935e-14
-3.100000e+00 -1.090225e-13
-3.050000e+00 -7.586943e-14
-3.000000e+00 3.468178e-14
-2.950000e+00 1.766177e-13
-2.900000e+00 2.567644e-13
-2.850000e+00 1.829126e-13
-2.800000e+00 -6.623001e-14
-2.750000e+00 -3.904230e-13
-2.700000e+00 -5.827755e-13
-2.650000e+00 -4.316109e-13
-2.600000e+00 1.215835e-13
-2.550000e+00 8.574961e-13
-2.500000e+00 1.301862e-12
-2.450000e+00 9.606919e-13
-2.400000e+00 -2.992993e-13
-2.350000e+00 -1.950506e-12
-2.300000e+00 -2.876212e-12
-2.250000e+00 -1.964536e-12
-2.200000e+00 9.797530e-13
-2.150000e+00 4.594348e-12
-2.100000e+00 6.273200e-12
-2.050000e+00 3.677222e-12
-2.000000e+00 -3.202580e-12
-1.950000e+00 -1.087313e-11
-1.900000e+00 -1.347980e-11
-1.850000e+00 -6.445010e-12
-1.800000e+00 9.198059e-12
-1.750000e+00 2.500213e-11
-1.700000e+00 2.846332e-11
-1.650000e+00 1.114859e-11
-1.600000e+00 -2.282328e-11
-1.550000e+00 -5.453998e-11
-1.500000e+00 -5.868585e-11
-1.450000e+00 -2.037135e-11
-1.400000e+00 4.926384e-11
-1.350000e+00 1.111495e-10
-1.300000e+00 1.167582e-10
-1.250000e+00 4.054844e-11
-1.200000e+00 -9.290478e-11
-1.150000e+00 -2.091272e-10
-1.100000e+00 -2.204440e-10
-1.050000e+00 -8.429665e-11
-1.000000e+00 1.523223e-10
-9.499998e-01 3.586398e-10
-9.000001e-01 3.867859e-10
-8.499999e-01 1.692194e-10
-7.999997e-01 -2.136824e-10
-7.500000e-01 -5.512180e-10
-6.999998e-01 -6.140138e-10
-6.500001e-01 -3.041618e-10
-5.999999e-01 2.517780e-10
-5.499997e-01 7.434778e-10
-5.000000e-01 8.500312e-10
-4.499998e-01 4.513059e-10
-4.000001e-01 -2.614655e-10
-3.499999e-01 -8.691534e-10
-2.999997e-01 -9.754186e-10
-2.500000e-01 -4.760722e-10
-1.999998e-01 3.374414e-10
-1.500001e-01 9.351619e-10
-9.999990e-02 8.902272e-10
-4.999971e-02 1.879430e-10
0.000000e+00 -7.196623e-10
5.000019e-02 -1.182281e-09
1.000004e-01 -7.892942e-10
1.500006e-01 3.144986e-10
1.999998e-01 1.471333e-09
2.500000e-01 1.914942e-09
3.000002e-01 1.281871e-09
3.500004e-01 -1.251110e-10
4.000006e-01 -1.526684e-09
4.499998e-01 -2.200567e-09
5.000000e-01 -1.986284e-09
5.500002e-01 -1.376720e-09
6.000004e-01 -1.087627e-09
6.500006e-01 -1.384770e-09
6.999998e-01 -1.672282e-09
7.500000e-01 -7.202668e-10
8.000002e-01 2.512178e-09
8.500004e-01 7.943936e-09
9.000006e-01 1.395803e-08
9.499998e-01 1.785177e-08
1.000000e+00 1.695131e-08
1.050000e+00 9.750869e-09
1.100000e+00 -3.586016e-09
1.150001e+00 -2.160784e-08
1.200000e+00 -4.251396e-08
1.250000e+00 -6.501248e-08
1.300000e+00 -8.862087e-08
1.350000e+00 -1.134307e-07
1.400001e+00 -1.397837e-07
1.450000e+00 -1.683012e-07
1.500000e+00 -2.002616e-07
1.550000e+00 -2.378189e-07
1.600000e+00 -2.834827e-07
1.650001e+00 -3.388314e-07
1.700000e+00 -4.032516e-07
1.750000e+00 -4.739043e-07
1.800000e+00 -5.475918e-07
1.850000e+00 -6.238944e-07
1.900001e+00 -7.076835e-07
1.950000e+00 -8.089558e-07
2.000000e+00 -9.392631e-07
2.050000e+00 -1.106244e-06
2.100000e+00 -1.309460e-06
2.150001e+00 -1.540532e-06
2.200000e+00 -1.788347e-06
2.250000e+00 -2.046921e-06
2.300000e+00 -2.321514e-06
2.350000e+00 -2.629168e-06
2.400001e+00 -2.992932e-06
2.450000e+00 -3.432849e-06
2.500000e+00 -3.958846e-06
2.550000e+00 -4.569668e-06
2.600000e+00 -5.258344e-06
2.650001e+00 -6.020760e-06
2.700000e+00 -6.862166e-06
2.750000e+00 -7.798000e-06
2.800000e+00 -8.849276e-06
2.850000e+00 -1.003621e-05
2.900001e+00 -1.137467e-05
2.950000e+00 -1.287775e-05
3.000000e+00 -1.456088e-05
3.050000e+00 -1.644642e-05
3.100000e+00 -1.856372e-05
3.150001e+00 -2.094409e-05
3.200000e+00 -2.361385e-05
3.250000e+00 -2.659037e-05
3.300000e+00 -2.988480e-05
3.350000e+00 -3.351062e-05
3.400001e+00 -3.749383e-05
3.450000e+00 -4.187869e-05
3.500000e+00 -4.672543e-05
3.550000e+00 -5.210054e-05
3.600000e+00 -5.806495e-05
3.650001e+00 -6.466567e-05
3.700000e+00 -7.193535e-05
3.750000e+00 -7.989955e-05
3.800000e+00 -8.858786e-05
3.850000e+00 -9.804373e-05
3.900001e+00 -1.083288e-04
3.950000e+00 -1.195211e-04
4.000000e+00 -1.317078e-04
4.050000e+00 -1.449771e-04
4.100000e+00 -1.594097e-04
4.150001e+00 -1.750752e-04
4.200000e+00 -1.920319e-04
4.250000e+00 -2.103317e-04
4.300000e+00 -2.300273e-04
4.350000e+00 -2.511802e-04
4.400001e+00 -2.738653e-04
4.450000e+00 -2.981701e-04
4.500000e+00 -3.241883e-04
4.550000e+00 -3.520090e-04
4.600000e+00 -3.817087e-04
4.650001e+00 -4.133467e-04
4.700000e+00 -4.469685e-04
4.750000e+00 -4.826125e-04
4.800000e+00 -5.203174e-04
4.850000e+00 -5.601248e-04
4.900001e+00 -6.020765e-04
4.950000e+00 -6.462081e-04
5.000000e+00 -6.925414e-04
5.050000e+00 -7.410816e-04
5.100000e+00 -7.918172e-04
5.150001e+00 -8.447216e-04
5.200000e+00 -8.997568e-04
5.250000e+00 -9.568710e-04
5.300000e+00 -1.015997e-03
5.350000e+00 -1.077048e-03
5.400001e+00 -1.139917e-03
5.450000e+00 -1.204474e-03
5.500000e+00 -1.270568e-03
5.550000e+00 -1.338027e-03
5.600000e+00 -1.406659e-03
5.650001e+00 -1.476247e-03
5.700000e+00 -1.546552e-03
5.750000e+00 -1.617304e-03
5.800000e+00 -1.688212e-03
5.850000e+00 -1.758958e-03
5.900001e+00 -1.829201e-03
5.950000e+00 -1.898581e-03
6.000000e+00 -1.966714e-03
6.050000e+00 -2.033196e-03
6.100000e+00 -2.097597e-03
6.150001e+00 -2.159466e-03
6.200000e+00 -2.218328e-03
6.250000e+00 -2.273693e-03
6.300000e+00 -2.325058e-03
6.350000e+00 -2.371913e-03
6.400001e+00 -2.413738e-03
6.450000e+00 -2.450009e-03
6.500000e+00 -2.480200e-03
6.550000e+00 -2.503787e-03
6.600000e+00 -2.520242e-03
6.650001e+00 -2.529055e-03
6.700000e+00 -2.529716e-03
6.750000e+00 -2.521740e-03
6.800000e+00 -2.504656e-03
6.850000e+00 -2.478017e-03
6.900001e+00 -2.441409e-03
6.950000e+00 -2.394451e-03
7.000000e+00 -2.336806e-03
7.050000e+00 -2.268180e-03
7.100000e+00 -2.188326e-03
7.150001e+00 -2.097049e-03
7.200000e+00 -1.994206e-03
7.250000e+00 -1.879710e-03
7.300000e+00 -1.753537e-03
7.350000e+00 -1.615725e-03
7.400001e+00 -1.466386e-03
7.450000e+00 -1.305702e-03
7.500000e+00 -1.133930e-03
7.550000e+00 -9.514019e-04
7.600000e+00 -7.585200e-04
7.650001e+00 -5.557591e-04
7.700000e+00 -3.436630e-04
7.750000e+00 -1.228471e-04
7.800000e+00 1.060009e-04
7.850000e+00 3.421201e-04
7.900001e+00 5.846772e-04
7.950000e+00 8.327740e-04
8.000000e+00 1.085453e-03
8.050001e+00 1.341705e-03
8.100000e+00 1.600479e-03
8.150000e+00 1.860686e-03
8.200001e+00 2.121198e-03
8.250000e+00 2.380855e-03
8.300001e+00 2.638471e-03
8.350000e+00 2.892840e-03
8.400000e+00 3.142748e-03
8.450001e+00 3.386980e-03
8.500000e+00 3.624334e-03
8.550001e+00 3.853629e-03
8.600000e+00 4.073707e-03
8.650000e+00 4.283444e-03
8.700001e+00 4.481750e-03
8.750000e+00 4.667580e-03
8.800001e+00 4.839943e-03
8.850000e+00 4.997909e-03
8.900000e+00 5.140626e-03
8.950001e+00 5.267323e-03
9.000000e+00 5.377314e-03
9.050001e+00 5.470003e-03
9.100000e+00 5.544887e-03
9.150000e+00 5.601557e-03
9.200001e+00 5.639698e-03
9.250000e+00 5.659098e-03
9.300001e+00 5.659647e-03
9.350000e+00 5.641333e-03
9.400000e+00 5.604255e-03
9.450001e+00 5.548609e-03
9.500000e+00 5.474701e-03
9.550001e+00 5.382938e-03
9.600000e+00 5.273830e-03
9.650000e+00 5.147977e-03
9.700001e+00 5.006060e-03
9.750000e+00 4.848843e-03
9.800001e+00 4.677160e-03
9.850000e+00 4.491913e-03
9.900000e+00 4.294066e-03
9.950001e+00 4.084643e-03
1.000000e+01 3.864709e-03
1.005000e+01 3.635377e-03
1.010000e+01 3.397789e-03
1.015000e+01 3.153108e-03
1.020000e+01 2.902514e-03
1.025000e+01 2.647187e-03
1.030000e+01 2.388306e-03
1.035000e+01 2.127036e-03
1.040000e+01 1.864523e-03
1.045000e+01 1.601894e-03
1.050000e+01 1.340240e-03
1.055000e+01 1.080613e-03
1.060000e+01 8.240156e-04
1.065000e+01 5.713950e-04
1.070000e+01 3.236345e-04
1.075000e+01 8.155203e-05
1.080000e+01 -1.541048e-04
1.085000e+01 -3.826628e-04
1.090000e+01 -6.035267e-04
1.095000e+01 -8.161813e-04
1.100000e+01 -1.020192e-03
1.105000e+01 -1.215203e-03
1.110000e+01 -1.400942e-03
1.115000e+01 -1.577221e-03
1.120000e+01 -1.743941e-03
1.125000e+01 -1.901093e-03
1.130000e+01 -2.048755e-03
1.135000e+01 -2.187091e-03
1.140000e+01 -2.316342e-03
1.145000e+01 -2.436830e-03
1.150000e+01 -2.548949e-03
1.155000e+01 -2.653165e-03
1.160000e+01 -2.750012e-03
1.165000e+01 -2.840086e-03
1.170000e+01 -2.924044e-03
1.175000e+01 -3.002596e-03
1.180000e+01 -3.076512e-03
1.185000e+01 -3.146607e-03
1.190000e+01 -3.213751e-03
1.195000e+01 -3.278846e-03
1.200000e+01 -3.342831e-03
1.205000e+01 -3.406673e-03
1.210000e+01 -3.471362e-03
1.215000e+01 -3.537901e-03
1.220000e+01 -3.607306e-03
1.225000e+01 -3.680598e-03
1.230000e+01 -3.758803e-03
1.235000e+01 -3.842936e-03
1.240000e+01 -3.934017e-03
1.245000e+01 -4.033055e-03
1.250000e+01 -4.141041e-03
1.255000e+01 -4.258935e-03
1.260000e+01 -4.387663e-03
1.265000e+01 -4.528099e-03
1.270000e+01 -4.681073e-03
1.275000e+01 -4.847361e-03
1.280000e+01 -5.027681e-03
1.285000e+01 -5.222689e-03
1.290000e+01 -5.432972e-03
1.295000e+01 -5.659025e-03
1.300000e+01 -5.901262e-03
1.305000e+01 -6.159996e-03
1.310000e+01 -6.435439e-03
1.315000e+01 -6.727691e-03
1.320000e+01 -7.036734e-03
1.325000e+01 -7.362416e-03
1.330000e+01 -7.704458e-03
1.335000e+01 -8.062437e-03
1.340000e+01 -8.435782e-03
1.345000e+01 -8.823778e-03
1.350000e+01 -9.225540e-03
1.355000e+01 -9.640027e-03
1.360000e+01 -1.006602e-02
1.365000e+01 -1.050215e-02
1.370000e+01 -1.094685e-02
1.375000e+01 -1.139839e-02
1.380000e+01 -1.185484e-02
1.385000e+01 -1.231410e-02
1.390000e+01 -1.277389e-02
1.395000e+01 -1.323176e-02
1.400000e+01 -1.368506e-02
1.405000e+01 -1.413102e-02
1.410000e+01 -1.456666e-02
1.415000e+01 -1.498888e-02
1.420000e+01 -1.539444e-02
1.425000e+01 -1.577995e-02
1.430000e+01 -1.614194e-02
1.435000e+01 -1.647682e-02
1.440000e+01 -1.678095e-02
1.445000e+01 -1.705060e-02
1.450000e+01 -1.728201e-02
1.455000e+01 -1.747143e-02
1.460000e+01 -1.761509e-02
1.465000e+01 -1.770927e-02
1.470000e+01 -1.775032e-02
1.475000e+01 -1.773467e-02
1.480000e+01 -1.765887e-02
1.485000e+01 -1.751963e-02
1.490000e+01 -1.731385e-02
1.495000e+01 -1.703865e-02
1.500000e+01 -1.669138e-02
1.505000e+01 -1.626969e-02
1.510000e+01 -1.577152e-02
1.515000e+01 -1.519515e-02
1.520000e+01 -1.453924e-02
1.525000e+01 -1.380283e-02
1.530000e+01 -1.298538e-02
1.535000e+01 -1.208680e-02
1.540000e+01 -1.110743e-02
1.545000e+01 -1.004813e-02
1.550000e+01 -8.910231e-03
1.555000e+01 -7.695587e-03
1.560000e+01 -6.406564e-03
1.565000e+01 -5.046043e-03
1.570000e+01 -3.617424e-03
1.575000e+01 -2.124626e-03
1.580000e+01 -5.720775e-04
1.585000e+01 1.035296e-03
1.590000e+01 2.692093e-03
1.595000e+01 4.392457e-03
1.600000e+01 6.130089e-03
1.605000e+01 7.898287e-03
1.610000e+01 9.689983e-03
1.615000e+01 1.149777e-02
1.620000e+01 1.331393e-02
1.625000e+01 1.513053e-02
1.630000e+01 1.693942e-02
1.635000e+01 1.873231e-02
1.640000e+01 2.050079e-02
1.645000e+01 2.223641e-02
1.650000e+01 2.393075e-02
1.655000e+01 2.557545e-02
1.660000e+01 2.716225e-02
1.665000e+01 2.868312e-02
1.670000e+01 3.013022e-02
1.675000e+01 3.149604e-02
1.680000e+01 3.277338e-02
1.685000e+01 3.395552e-02
1.690000e+01 3.503612e-02
1.695000e+01 3.600941e-02
1.700000e+01 3.687012e-02
1.705000e+01 3.761361e-02
1.710000e+01 3.823578e-02
1.715000e+01 3.873326e-02
1.720000e+01 3.910332e-02
1.725000e+01 3.934392e-02
1.730000e+01 3.945374e-02
1.735000e+01 3.943221e-02
1.740000e+01 3.927944e-02
1.745000e+01 3.899632e-02
1.750000e+01 3.858443e-02
1.755000e+01 3.804608e-02
1.760000e+01 3.738425e-02
1.765000e+01 3.660260e-02
1.770000e+01 3.570541e-02
1.775000e+01 3.469759e-02
1.780000e+01 3.358461e-02
1.785000e+01 3.237245e-02
1.790000e+01 3.106760e-02
1.795000e+01 2.967695e-02
1.800000e+01 2.820778e-02
1.805000e+01 2.666772e-02
1.810000e+01 2.506467e-02
1.815000e+01 2.340672e-02
1.820000e+01 2.170216e-02
1.825000e+01 1.995938e-02
1.830000e+01 1.818678e-02
1.835000e+01 1.639277e-02
1.840000e+01 1.458569e-02
1.845000e+01 1.277377e-02
1.850000e+01 1.096507e-02
1.855000e+01 9.167404e-03
1.860000e+01 7.388362e-03
1.865000e+01 5.635203e-03
1.870000e+01 3.914841e-03
1.875000e+01 2.233814e-03
1.880000e+01 5.982425e-04
1.885000e+01 -9.861907e-04
1.890000e+01 -2.514266e-03
1.895000e+01 -3.981254e-03
1.900000e+01 -5.382915e-03
1.905000e+01 -6.715519e-03
1.910000e+01 -7.975848e-03
1.915000e+01 -9.161197e-03
1.920000e+01 -1.026936e-02
1.925000e+01 -1.129866e-02
1.930000e+01 -1.224790e-02
1.935000e+01 -1.311638e-02
1.940000e+01 -1.390387e-02
1.945000e+01 -1.461057e-02
1.950000e+01 -1.523714e-02
1.955000e+01 -1.578461e-02
1.960000e+01 -1.625440e-02
1.965000e+01 -1.664830e-02
1.970000e+01 -1.696839e-02
1.975000e+01 -1.721705e-02
1.980000e+01 -1.739694e-02
1.985000e+01 -1.751093e-02
1.990000e+01 -1.756209e-02
1.995000e+01 -1.755369e-02
2.000000e+01 -1.748911e-02
2.005000e+01 -1.737185e-02
2.010000e+01 -1.720550e-02
2.015000e+01 -1.699371e-02
2.020000e+01 -1.674011e-02
2.025000e+01 -1.644838e-02
2.030000e+01 -1.612214e-02
2.035000e+01 -1.576498e-02
2.040000e+01 -1.538043e-02
2.045000e+01 -1.497193e-02
2.050000e+01 -1.454282e-02
2.055000e+01 -1.409635e-02
2.060000e+01 -1.363560e-02
2.065000e+01 -1.316357e-02
2.070000e+01 -1.268306e-02
2.075000e+01 -1.219674e-02
2.080000e+01 -1.170710e-02
2.085000e+01 -1.121648e-02
2.090000e+01 -1.072705e-02
2.095000e+01 -1.024077e-02
2.100000e+01 -9.759487e-03
2.105000e+01 -9.284845e-03
2.110000e+01 -8.818335e-03
2.115000e+01 -8.361294e-03
2.120000e+01 -7.914899e-03
2.125000e+01 -7.480173e-03
2.130000e+01 -7.057995e-03
2.135000e+01 -6.649098e-03
2.140000e+01 -6.254083e-03
2.145000e+01 -5.873427e-03
2.150000e+01 -5.507479e-03
2.155000e+01 -5.156493e-03
2.160000e+01 -4.820610e-03
2.165000e+01 -4.499885e-03
2.170000e+01 -4.194289e-03
2.175000e+01 -3.903713e-03
2.180000e+01 -3.627983e-03
2.185000e+01 -3.366864e-03
2.190000e+01 -3.120062e-03
2.195000e+01 -2.887233e-03
2.200000e+01 -2.667992e-03
2.205000e+01 -2.461923e-03
2.210000e+01 -2.268584e-03
2.215000e+01 -2.087513e-03
2.220000e+01 -1.918231e-03
2.225000e+01 -1.760246e-03
2.230000e+01 -1.613054e-03
2.235000e+01 -1.476146e-03
2.240000e+01 -1.349010e-03
2.245000e+01 -1.231135e-03
2.250000e+01 -1.122019e-03
2.255000e+01 -1.021168e-03
2.260000e+01 -9.280979e-04
2.265000e+01 -8.423366e-04
2.270000e+01 -7.634318e-04
2.275000e+01 -6.909507e-04
2.280000e+01 -6.244814e-04
2.285000e+01 -5.636290e-04
2.290000e+01 -5.080114e-04
2.295000e+01 -4.572562e-04
2.300000e+01 -4.110034e-04
2.305000e+01 -3.689094e-04
2.310000e+01 -3.306521e-04
2.315000e+01 -2.959319e-04
2.320000e+01 -2.644687e-04
2.325000e+01 -2.359995e-04
2.330000e+01 -2.102773e-04
2.335000e+01 -1.870733e-04
2.340000e+01 -1.661793e-04
2.345000e+01 -1.474067e-04
2.350000e+01 -1.305818e-04
2.355000e+01 -1.155389e-04
2.360000e+01 -1.021168e-04
2.365000e+01 -9.015985e-05
2.370000e+01 -7.952265e-05
2.375000e+01 -7.007371e-05
2.380000e+01 -6.169596e-05
2.385000e+01 -5.428363e-05
2.390000e+01 -4.773899e-05
2.395000e+01 -4.197162e-05
2.400000e+01 -3.690033e-05
2.405000e+01 -3.245489e-05
2.410000e+01 -2.857490e-05
2.415000e+01 -2.520557e-05
2.420000e+01 -2.229321e-05
2.425000e+01 -1.978351e-05
2.430000e+01 -1.762365e-05
2.435000e+01 -1.576581e-05
2.440000e+01 -1.416920e-05
2.445000e+01 -1.279898e-05
2.450000e+01 -1.162351e-05
2.455000e+01 -1.061251e-05
2.460000e+01 -9.737572e-06
2.465000e+01 -8.973958e-06
2.470000e+01 -8.301839e-06
2.475000e+01 -7.705507e-06
2.480000e+01 -7.171408e-06
2.485000e+01 -6.686788e-06
2.490000e+01 -6.239954e-06
2.495000e+01 -5.821469e-06
2.500000e+01 -5.424649e-06
2.505000e+01 -5.044444e-06
2.510000e+01 -4.675382e-06
2.515000e+01 -4.310220e-06
2.520000e+01 -3.940371e-06
2.525000e+01 -3.557698e-06
2.530000e+01 -3.156426e-06
2.535000e+01 -2.734143e-06
2.540000e+01 -2.291911e-06
2.545000e+01 -1.834016e-06
2.550000e+01 -1.367545e-06
2.555000e+01 -9.013606e-07
2.560000e+01 -4.441119e-07
2.565000e+01 -1.832813e-09
2.570000e+01 4.234752e-07
2.575000e+01 8.331776e-07
2.580000e+01 1.229585e-06
2.585000e+01 1.613477e-06
2.590000e+01 1.983263e-06
2.595000e+01 2.335938e-06
2.600000e+01 2.668401e-06
2.605000e+01 2.977459e-06
2.610000e+01 3.258378e-06
2.615000e+01 3.503585e-06
2.620000e+01 3.703470e-06
2.625000e+01 3.849492e-06
2.630000e+01 3.937625e-06
2.635000e+01 3.969477e-06
2.640000e+01 3.950100e-06
2.645000e+01 3.884151e-06
2.650000e+01 3.773451e-06
2.655000e+01 3.617689e-06
2.660000e+01 3.417297e-06
2.665000e+01 3.175603e-06
2.670000e+01 2.898053e-06
2.675000e+01 2.589048e-06
2.680000e+01 2.249178e-06
2.685000e+01 1.875572e-06
2.690000e+01 1.465483e-06
2.695000e+01 1.020448e-06
2.700000e+01 5.477918e-07
2.705000e+01 5.827162e-08
2.710000e+01 -4.382717e-07
2.715000e+01 -9.359503e-07
2.720000e+01 -1.432517e-06
2.725000e+01 -1.926472e-06
2.730000e+01 -2.414315e-06
2.735000e+01 -2.890231e-06
2.740000e+01 -3.348209e-06
2.745000e+01 -3.784510e-06
2.750000e+01 -4.198298e-06
2.755000e+01 -4.590071e-06
2.760000e+01 -4.959512e-06
2.765000e+01 -5.304887e-06
2.770000e+01 -5.624563e-06
2.775000e+01 -5.919289e-06
2.780000e+01 -6.193078e-06
2.785000e+01 -6.451753e-06
2.790000e+01 -6.700286e-06
2.795000e+01 -6.941250e-06
2.800000e+01 -7.175849e-06
2.805000e+01 -7.406929e-06
2.810000e+01 -7.641731e-06
2.815000e+01 -7.892210e-06
2.820000e+01 -8.172890e-06
2.825000e+01 -8.497970e-06
2.830000e+01 -8.880139e-06
2.835000e+01 -9.331967e-06
2.840000e+01 -9.868721e-06
2.845000e+01 -1.051012e-05
2.850000e+01 -1.127958e-05
2.855000e+01 -1.220128e-05
2.860000e+01 -1.329756e-05
2.865000e+01 -1.458850e-05
2.870000e+01 -1.609433e-05
2.875000e+01 -1.783872e-05
2.880000e+01 -1.985048e-05
2.885000e+01 -2.216250e-05
2.890000e+01 -2.480851e-05
2.895000e+01 -2.782054e-05
2.900000e+01 -3.122875e-05
2.905000e+01 -3.506416e-05
2.910000e+01 -3.936216e-05
2.915000e+01 -4.416439e-05
2.920000e+01 -4.951739e-05
2.925000e+01 -5.546958e-05
2.930000e+01 -6.206823e-05
2.935000e+01 -6.935871e-05
2.940000e+01 -7.738602e-05
2.945000e+01 -8.619700e-05
