-8.000000e+00 0.000000e+00
-7.990000e+00 0.000000e+00
-7.980000e+00 0.000000e+00
-7.970000e+00 0.000000e+00
-7.960000e+00 0.000000e+00
-7.950000e+00 0.000000e+00
-7.940000e+00 0.000000e+00
-7.930000e+00 0.000000e+00
-7.920000e+00 0.000000e+00
-7.910000e+00 0.000000e+00
-7.900000e+00 0.000000e+00
-7.890000e+00 0.000000e+00
-7.880000e+00 0.000000e+00
-7.870000e+00 0.000000e+00
-7.860000e+00 0.000000e+00
-7.850000e+00 0.000000e+00
-7.840000e+00 0.000000e+00
-7.830000e+00 0.000000e+00
-7.820000e+00 0.000000e+00
-7.810000e+00 0.000000e+00
-7.800000e+00 0.000000e+00
-7.790000e+00 0.000000e+00
-7.780000e+00 0.000000e+00
-7.770000e+00 0.000000e+00
-7.760000e+00 0.000000e+00
-7.750000e+00 0.000000e+00
-7.740000e+00 0.000000e+00
-7.730000e+00 0.000000e+00
-7.720000e+00 0.000000e+00
-7.710000e+00 0.000000e+00
-7.700000e+00 0.000000e+00
-7.690000e+00 0.000000e+00
-7.680000e+00 0.000000e+00
-7.670000e+00 0.000000e+00
-7.660000e+00 0.000000e+00
-7.650000e+00 0.000000e+00
-7.640000e+00 0.000000e+00
-7.630000e+00 0.000000e+00
-7.620000e+00 0.000000e+00
-7.610000e+00 0.000000e+00
-7.600000e+00 0.000000e+00
-7.590000e+00 0.000000e+00
-7.580000e+00 0.000000e+00
-7.570000e+00 0.000000e+00
-7.560000e+00 0.000000e+00
-7.550000e+00 0.000000e+00
-7.540000e+00 0.000000e+00
-7.530000e+00 0.000000e+00
-7.520000e+00 0.000000e+00
-7.510000e+00 0.000000e+00
-7.500000e+00 0.000000e+00
-7.490000e+00 0.000000e+00
-7.480000e+00 0.000000e+00
-7.470000e+00 0.000000e+00
-7.460000e+00 0.000000e+00
-7.450000e+00 0.000000e+00
-7.440000e+00 0.000000e+00
-7.430000e+00 0.000000e+00
-7.420000e+00 0.000000e+00
-7.410000e+00 0.000000e+00
-7.400000e+00 0.000000e+00
-7.390000e+00 0.000000e+00
-7.380000e+00 0.000000e+00
-7.370000e+00 0.000000e+00
-7.360000e+00 0.000000e+00
-7.350000e+00 0.000000e+00
-7.340000e+00 0.000000e+00
-7.330000e+00 0.000000e+00
-7.320000e+00 0.000000e+00
-7.310000e+00 0.000000e+00
-7.300000e+00 0.000000e+00
-7.290000e+00 0.000000e+00
-7.280000e+00 0.000000e+00
-7.270000e+00 0.000000e+00
-7.260000e+00 0.000000e+00
-7.250000e+00 0.000000e+00
-7.240000e+00 0.000000e+00
-7.230000e+00 0.000000e+00
-7.220000e+00 0.000000e+00
-7.210000e+00 0.000000e+00
-7.200000e+00 0.000000e+00
-7.190000e+00 0.000000e+00
-7.180000e+00 0.000000e+00
-7.170000e+00 0.000000e+00
-7.160000e+00 0.000000e+00
-7.150000e+00 0.000000e+00
-7.140000e+00 0.000000e+00
-7.130000e+00 0.000000e+00
-7.120000e+00 0.000000e+00
-7.110000e+00 0.000000e+00
-7.100000e+00 0.000000e+00
-7.090000e+00 0.000000e+00
-7.080000e+00 0.000000e+00
-7.070000e+00 0.000000e+00
-7.060000e+00 0.000000e+00
-7.050000e+00 0.000000e+00
-7.040000e+00 0.000000e+00
-7.030000e+00 0.000000e+00
-7.020000e+00 0.000000e+00
-7.010000e+00 0.000000e+00
-7.000000e+00 0.000000e+00
-6.990000e+00 0.000000e+00
-6.980000e+00 0.000000e+00
-6.970000e+00 0.000000e+00
-6.960000e+00 0.000000e+00
-6.950000e+00 0.000000e+00
-6.940000e+00 0.000000e+00
-6.930000e+00 0.000000e+00
-6.920000e+00 0.000000e+00
-6.910000e+00 0.000000e+00
-6.900000e+00 0.000000e+00
-6.890000e+00 0.000000e+00
-6.880000e+00 0.000000e+00
-6.870000e+00 0.000000e+00
-6.860000e+00 0.000000e+00
-6.850000e+00 0.000000e+00
-6.840000e+00 0.000000e+00
-6.830000e+00 0.000000e+00
-6.820000e+00 0.000000e+00
-6.810000e+00 0.000000e+00
-6.800000e+00 0.000000e+00
-6.790000e+00 0.000000e+00
-6.780000e+00 0.000000e+00
-6.770000e+00 0.000000e+00
-6.760000e+00 0.000000e+00
-6.750000e+00 0.000000e+00
-6.740000e+00 0.000000e+00
-6.730000e+00 0.000000e+00
-6.720000e+00 0.000000e+00
-6.710000e+00 0.000000e+00
-6.700000e+00 0.000000e+00
-6.690000e+00 0.000000e+00
-6.680000e+00 0.000000e+00
-6.670000e+00 0.000000e+00
-6.660000e+00 0.000000e+00
-6.650000e+00 0.000000e+00
-6.640000e+00 0.000000e+00
-6.630000e+00 0.000000e+00
-6.620000e+00 0.000000e+00
-6.610000e+00 0.000000e+00
-6.600000e+00 0.000000e+00
-6.590000e+00 0.000000e+00
-6.580000e+00 0.000000e+00
-6.570000e+00 0.000000e+00
-6.560000e+00 0.000000e+00
-6.550000e+00 0.000000e+00
-6.540000e+00 0.000000e+00
-6.530000e+00 0.000000e+00
-6.520000e+00 0.000000e+00
-6.510000e+00 0.000000e+00
-6.500000e+00 0.000000e+00
-6.490000e+00 0.000000e+00
-6.480000e+00 0.000000e+00
-6.470000e+00 0.000000e+00
-6.460000e+00 0.000000e+00
-6.450000e+00 0.000000e+00
-6.440000e+00 0.000000e+00
-6.430000e+00 0.000000e+00
-6.420000e+00 0.000000e+00
-6.410000e+00 0.000000e+00
-6.400000e+00 0.000000e+00
-6.390000e+00 0.000000e+00
-6.380000e+00 0.000000e+00
-6.370000e+00 0.000000e+00
-6.360000e+00 0.000000e+00
-6.350000e+00 0.000000e+00
-6.340000e+00 0.000000e+00
-6.330000e+00 0.000000e+00
-6.320000e+00 0.000000e+00
-6.310000e+00 0.000000e+00
-6.300000e+00 0.000000e+00
-6.290000e+00 0.000000e+00
-6.280000e+00 0.000000e+00
-6.270000e+00 0.000000e+00
-6.260000e+00 0.000000e+00
-6.250000e+00 0.000000e+00
-6.240000e+00 0.000000e+00
-6.230000e+00 0.000000e+00
-6.220000e+00 0.000000e+00
-6.210000e+00 0.000000e+00
-6.200000e+00 0.000000e+00
-6.190000e+00 0.000000e+00
-6.180000e+00 0.000000e+00
-6.170000e+00 0.000000e+00
-6.160000e+00 0.000000e+00
-6.150000e+00 0.000000e+00
-6.140000e+00 0.000000e+00
-6.130000e+00 0.000000e+00
-6.120000e+00 0.000000e+00
-6.110000e+00 0.000000e+00
-6.100000e+00 0.000000e+00
-6.090000e+00 0.000000e+00
-6.080000e+00 0.000000e+00
-6.070000e+00 0.000000e+00
-6.060000e+00 0.000000e+00
-6.050000e+00 0.000000e+00
-6.040000e+00 0.000000e+00
-6.030000e+00 0.000000e+00
-6.020000e+00 0.000000e+00
-6.010000e+00 0.000000e+00
-6.000000e+00 0.000000e+00
-5.990000e+00 0.000000e+00
-5.980000e+00 0.000000e+00
-5.970000e+00 0.000000e+00
-5.960000e+00 0.000000e+00
-5.950000e+00 0.000000e+00
-5.940000e+00 0.000000e+00
-5.930000e+00 0.000000e+00
-5.920000e+00 0.000000e+00
-5.910000e+00 0.000000e+00
-5.900000e+00 0.000000e+00
-5.890000e+00 0.000000e+00
-5.880000e+00 0.000000e+00
-5.870000e+00 0.000000e+00
-5.860000e+00 0.000000e+00
-5.850000e+00 0.000000e+00
-5.840000e+00 0.000000e+00
-5.830000e+00 0.000000e+00
-5.820000e+00 0.000000e+00
-5.810000e+00 0.000000e+00
-5.800000e+00 0.000000e+00
-5.790000e+00 0.000000e+00
-5.780000e+00 0.000000e+00
-5.770000e+00 0.000000e+00
-5.760000e+00 0.000000e+00
-5.750000e+00 0.000000e+00
-5.740000e+00 0.000000e+00
-5.730000e+00 0.000000e+00
-5.720000e+00 0.000000e+00
-5.710000e+00 0.000000e+00
-5.700000e+00 0.000000e+00
-5.690000e+00 0.000000e+00
-5.680000e+00 0.000000e+00
-5.670000e+00 0.000000e+00
-5.660000e+00 0.000000e+00
-5.650000e+00 0.000000e+00
-5.640000e+00 0.000000e+00
-5.630000e+00 0.000000e+00
-5.620000e+00 0.000000e+00
-5.610000e+00 0.000000e+00
-5.600000e+00 0.000000e+00
-5.590000e+00 0.000000e+00
-5.580000e+00 0.000000e+00
-5.570000e+00 0.000000e+00
-5.560000e+00 0.000000e+00
-5.550000e+00 0.000000e+00
-5.540000e+00 0.000000e+00
-5.530000e+00 0.000000e+00
-5.520000e+00 0.000000e+00
-5.510000e+00 0.000000e+00
-5.500000e+00 0.000000e+00
-5.490000e+00 0.000000e+00
-5.480000e+00 0.000000e+00
-5.470000e+00 0.000000e+00
-5.460000e+00 0.000000e+00
-5.450000e+00 0.000000e+00
-5.440000e+00 0.000000e+00
-5.430000e+00 0.000000e+00
-5.420000e+00 0.000000e+00
-5.410000e+00 0.000000e+00
-5.400000e+00 0.000000e+00
-5.390000e+00 0.000000e+00
-5.380000e+00 0.000000e+00
-5.370000e+00 0.000000e+00
-5.360000e+00 0.000000e+00
-5.350000e+00 0.000000e+00
-5.340000e+00 0.000000e+00
-5.330000e+00 0.000000e+00
-5.320000e+00 0.000000e+00
-5.310000e+00 0.000000e+00
-5.300000e+00 0.000000e+00
-5.290000e+00 0.000000e+00
-5.280000e+00 0.000000e+00
-5.270000e+00 0.000000e+00
-5.260000e+00 0.000000e+00
-5.250000e+00 0.000000e+00
-5.240000e+00 0.000000e+00
-5.230000e+00 0.000000e+00
-5.220000e+00 0.000000e+00
-5.210000e+00 0.000000e+00
-5.200000e+00 0.000000e+00
-5.190000e+00 0.000000e+00
-5.180000e+00 0.000000e+00
-5.170000e+00 0.000000e+00
-5.160000e+00 0.000000e+00
-5.150000e+00 0.000000e+00
-5.140000e+00 0.000000e+00
-5.130000e+00 0.000000e+00
-5.120000e+00 0.000000e+00
-5.110000e+00 0.000000e+00
-5.100000e+00 0.000000e+00
-5.090000e+00 0.000000e+00
-5.080000e+00 0.000000e+00
-5.070000e+00 0.000000e+00
-5.060000e+00 0.000000e+00
-5.050000e+00 0.000000e+00
-5.040000e+00 0.000000e+00
-5.030000e+00 0.000000e+00
-5.020000e+00 0.000000e+00
-5.010000e+00 0.000000e+00
-5.000000e+00 0.000000e+00
-4.990000e+00 0.000000e+00
-4.980000e+00 0.000000e+00
-4.970000e+00 0.000000e+00
-4.960000e+00 0.000000e+00
-4.950000e+00 0.000000e+00
-4.940000e+00 0.000000e+00
-4.930000e+00 0.000000e+00
-4.920000e+00 0.000000e+00
-4.910000e+00 0.000000e+00
-4.900000e+00 0.000000e+00
-4.890000e+00 0.000000e+00
-4.880000e+00 0.000000e+00
-4.870000e+00 0.000000e+00
-4.860000e+00 0.000000e+00
-4.850000e+00 0.000000e+00
-4.840000e+00 0.000000e+00
-4.830000e+00 0.000000e+00
-4.820000e+00 0.000000e+00
-4.810000e+00 0.000000e+00
-4.800000e+00 0.000000e+00
-4.790000e+00 0.000000e+00
-4.780000e+00 0.000000e+00
-4.770000e+00 0.000000e+00
-4.760000e+00 0.000000e+00
-4.750000e+00 0.000000e+00
-4.740000e+00 0.000000e+00
-4.730000e+00 0.000000e+00
-4.720000e+00 0.000000e+00
-4.710000e+00 0.000000e+00
-4.700000e+00 0.000000e+00
-4.690000e+00 0.000000e+00
-4.680000e+00 0.000000e+00
-4.670000e+00 0.000000e+00
-4.660000e+00 0.000000e+00
-4.650000e+00 0.000000e+00
-4.640000e+00 0.000000e+00
-4.630000e+00 0.000000e+00
-4.620000e+00 0.000000e+00
-4.610000e+00 0.000000e+00
-4.600000e+00 0.000000e+00
-4.590000e+00 0.000000e+00
-4.580000e+00 0.000000e+00
-4.570000e+00 0.000000e+00
-4.560000e+00 0.000000e+00
-4.550000e+00 0.000000e+00
-4.540000e+00 0.000000e+00
-4.530000e+00 0.000000e+00
-4.520000e+00 0.000000e+00
-4.510000e+00 0.000000e+00
-4.500000e+00 0.000000e+00
-4.490000e+00 0.000000e+00
-4.480000e+00 0.000000e+00
-4.470000e+00 0.000000e+00
-4.460000e+00 0.000000e+00
-4.450000e+00 0.000000e+00
-4.440000e+00 0.000000e+00
-4.430000e+00 0.000000e+00
-4.420000e+00 0.000000e+00
-4.410000e+00 0.000000e+00
-4.400000e+00 0.000000e+00
-4.390000e+00 0.000000e+00
-4.380000e+00 0.000000e+00
-4.370000e+00 0.000000e+00
-4.360000e+00 0.000000e+00
-4.350000e+00 0.000000e+00
-4.340000e+00 0.000000e+00
-4.330000e+00 0.000000e+00
-4.320000e+00 0.000000e+00
-4.310000e+00 0.000000e+00
-4.300000e+00 0.000000e+00
-4.290000e+00 0.000000e+00
-4.280000e+00 0.000000e+00
-4.270000e+00 0.000000e+00
-4.260000e+00 0.000000e+00
-4.250000e+00 0.000000e+00
-4.240000e+00 0.000000e+00
-4.230000e+00 0.000000e+00
-4.220000e+00 0.000000e+00
-4.210000e+00 0.000000e+00
-4.200000e+00 0.000000e+00
-4.190000e+00 0.000000e+00
-4.180000e+00 0.000000e+00
-4.170000e+00 0.000000e+00
-4.160000e+00 0.000000e+00
-4.150000e+00 0.000000e+00
-4.140000e+00 0.000000e+00
-4.130000e+00 0.000000e+00
-4.120000e+00 0.000000e+00
-4.110000e+00 0.000000e+00
-4.100000e+00 0.000000e+00
-4.090000e+00 0.000000e+00
-4.080000e+00 0.000000e+00
-4.070000e+00 0.000000e+00
-4.060000e+00 0.000000e+00
-4.050000e+00 0.000000e+00
-4.040000e+00 0.000000e+00
-4.030000e+00 0.000000e+00
-4.020000e+00 0.000000e+00
-4.010000e+00 0.000000e+00
-4.000000e+00 0.000000e+00
-3.990000e+00 0.000000e+00
-3.980000e+00 0.000000e+00
-3.970000e+00 0.000000e+00
-3.960000e+00 0.000000e+00
-3.950000e+00 0.000000e+00
-3.940000e+00 0.000000e+00
-3.930000e+00 0.000000e+00
-3.920000e+00 0.000000e+00
-3.910000e+00 0.000000e+00
-3.900000e+00 0.000000e+00
-3.890000e+00 0.000000e+00
-3.880000e+00 0.000000e+00
-3.870000e+00 0.000000e+00
-3.860000e+00 0.000000e+00
-3.850000e+00 0.000000e+00
-3.840000e+00 0.000000e+00
-3.830000e+00 0.000000e+00
-3.820000e+00 0.000000e+00
-3.810000e+00 0.000000e+00
-3.800000e+00 0.000000e+00
-3.790000e+00 0.000000e+00
-3.780000e+00 0.000000e+00
-3.770000e+00 0.000000e+00
-3.760000e+00 0.000000e+00
-3.750000e+00 0.000000e+00
-3.740000e+00 0.000000e+00
-3.730000e+00 0.000000e+00
-3.720000e+00 0.000000e+00
-3.710000e+00 0.000000e+00
-3.700000e+00 0.000000e+00
-3.690000e+00 0.000000e+00
-3.680000e+00 0.000000e+00
-3.670000e+00 0.000000e+00
-3.660000e+00 0.000000e+00
-3.650000e+00 0.000000e+00
-3.640000e+00 0.000000e+00
-3.630000e+00 0.000000e+00
-3.620000e+00 0.000000e+00
-3.610000e+00 0.000000e+00
-3.600000e+00 0.000000e+00
-3.590000e+00 0.000000e+00
-3.580000e+00 0.000000e+00
-3.570000e+00 0.000000e+00
-3.560000e+00 0.000000e+00
-3.550000e+00 0.000000e+00
-3.540000e+00 0.000000e+00
-3.530000e+00 0.000000e+00
-3.520000e+00 0.000000e+00
-3.510000e+00 0.000000e+00
-3.500000e+00 0.000000e+00
-3.490000e+00 0.000000e+00
-3.480000e+00 0.000000e+00
-3.470000e+00 0.000000e+00
-3.460000e+00 0.000000e+00
-3.450000e+00 0.000000e+00
-3.440000e+00 0.000000e+00
-3.430000e+00 0.000000e+00
-3.420000e+00 0.000000e+00
-3.410000e+00 0.000000e+00
-3.400000e+00 0.000000e+00
-3.390000e+00 0.000000e+00
-3.380000e+00 0.000000e+00
-3.370000e+00 0.000000e+00
-3.360000e+00 0.000000e+00
-3.350000e+00 0.000000e+00
-3.340000e+00 0.000000e+00
-3.330000e+00 0.000000e+00
-3.320000e+00 0.000000e+00
-3.310000e+00 0.000000e+00
-3.300000e+00 0.000000e+00
-3.290000e+00 0.000000e+00
-3.280000e+00 0.000000e+00
-3.270000e+00 0.000000e+00
-3.260000e+00 0.000000e+00
-3.250000e+00 0.000000e+00
-3.240000e+00 0.000000e+00
-3.230000e+00 0.000000e+00
-3.220000e+00 0.000000e+00
-3.210000e+00 0.000000e+00
-3.200000e+00 0.000000e+00
-3.190000e+00 0.000000e+00
-3.180000e+00 0.000000e+00
-3.170000e+00 0.000000e+00
-3.160000e+00 0.000000e+00
-3.150000e+00 0.000000e+00
-3.140000e+00 0.000000e+00
-3.130000e+00 0.000000e+00
-3.120000e+00 0.000000e+00
-3.110000e+00 0.000000e+00
-3.100000e+00 0.000000e+00
-3.090000e+00 0.000000e+00
-3.080000e+00 0.000000e+00
-3.070000e+00 0.000000e+00
-3.060000e+00 0.000000e+00
-3.050000e+00 0.000000e+00
-3.040000e+00 0.000000e+00
-3.030000e+00 0.000000e+00
-3.020000e+00 0.000000e+00
-3.010000e+00 0.000000e+00
-3.000000e+00 0.000000e+00
-2.990000e+00 0.000000e+00
-2.980000e+00 0.000000e+00
-2.970000e+00 0.000000e+00
-2.960000e+00 0.000000e+00
-2.950000e+00 0.000000e+00
-2.940000e+00 -1.401298e-45
-2.930000e+00 0.000000e+00
-2.920000e+00 1.401298e-45
-2.910000e+00 0.000000e+00
-2.900000e+00 0.000000e+00
-2.890000e+00 0.000000e+00
-2.880000e+00 0.000000e+00
-2.870000e+00 0.000000e+00
-2.860000e+00 0.000000e+00
-2.850000e+00 0.000000e+00
-2.840000e+00 1.401298e-45
-2.830000e+00 2.802597e-45
-2.820000e+00 1.401298e-45
-2.810000e+00 0.000000e+00
-2.800000e+00 0.000000e+00
-2.790000e+00 1.401298e-45
-2.780000e+00 0.000000e+00
-2.770000e+00 0.000000e+00
-2.760000e+00 0.000000e+00
-2.750000e+00 -2.802597e-45
-2.740000e+00 -1.401298e-45
-2.730000e+00 -2.802597e-45
-2.720000e+00 -4.203895e-45
-2.710000e+00 -2.802597e-45
-2.700000e+00 -4.203895e-45
-2.690000e+00 -4.203895e-45
-2.680000e+00 -1.401298e-45
-2.670000e+00 0.000000e+00
-2.660000e+00 1.401298e-45
-2.650000e+00 0.000000e+00
-2.640000e+00 7.006492e-45
-2.630000e+00 4.203895e-45
-2.620000e+00 9.809089e-45
-2.610000e+00 9.809089e-45
-2.600000e+00 1.541428e-44
-2.590000e+00 1.401298e-44
-2.580000e+00 1.121039e-44
-2.570000e+00 1.261169e-44
-2.560000e+00 1.261169e-44
-2.550000e+00 7.006492e-45
-2.540000e+00 7.006492e-45
-2.530000e+00 -2.802597e-45
-2.520000e+00 -5.605194e-45
-2.510000e+00 -1.961818e-44
-2.500000e+00 -2.662467e-44
-2.490000e+00 -4.063766e-44
-2.480000e+00 -4.904545e-44
-2.470000e+00 -6.165713e-44
-2.460000e+00 -7.006492e-44
-2.450000e+00 -7.567012e-44
-2.440000e+00 -8.267661e-44
-2.430000e+00 -8.547921e-44
-2.420000e+00 -8.968310e-44
-2.410000e+00 -8.267661e-44
-2.400000e+00 -7.567012e-44
-2.390000e+00 -5.745324e-44
-2.380000e+00 -3.923636e-44
-2.370000e+00 -1.261169e-44
-2.360000e+00 1.121039e-44
-2.350000e+00 4.764415e-44
-2.340000e+00 9.248570e-44
-2.330000e+00 1.373272e-43
-2.320000e+00 1.905766e-43
-2.310000e+00 2.494311e-43
-2.300000e+00 3.054831e-43
-2.290000e+00 3.573311e-43
-2.280000e+00 4.063766e-43
-2.270000e+00 4.456129e-43
-2.260000e+00 4.736389e-43
-2.250000e+00 4.932571e-43
-2.240000e+00 4.904545e-43
-2.230000e+00 4.638298e-43
-2.220000e+00 4.203895e-43
-2.210000e+00 3.489233e-43
-2.200000e+00 2.466285e-43
-2.190000e+00 1.205117e-43
-2.180000e+00 -4.203895e-44
-2.170000e+00 -2.312142e-43
-2.160000e+00 -4.470142e-43
-2.150000e+00 -6.866362e-43
-2.140000e+00 -9.416726e-43
-2.130000e+00 -1.202314e-42
-2.120000e+00 -1.469962e-42
-2.110000e+00 -1.724998e-42
-2.100000e+00 -1.945002e-42
-2.090000e+00 -2.142585e-42
-2.080000e+00 -2.275709e-42
-2.070000e+00 -2.352780e-42
-2.060000e+00 -2.334563e-42
-2.050000e+00 -2.222459e-42
-2.040000e+00 -1.998252e-42
-2.030000e+00 -1.649328e-42
-2.020000e+00 -1.172887e-42
-2.010000e+00 -5.507103e-43
-2.000000e+00 2.073922e-43
-1.990000e+00 1.093013e-42
-1.980000e+00 2.106152e-42
-1.970000e+00 3.214579e-42
-1.960000e+00 4.405682e-42
-1.950000e+00 5.640226e-42
-1.940000e+00 6.873369e-42
-1.930000e+00 8.051861e-42
-1.920000e+00 9.122453e-42
-1.910000e+00 1.002069e-41
-1.900000e+00 1.067789e-41
-1.890000e+00 1.101841e-41
-1.880000e+00 1.097077e-41
-1.870000e+00 1.046910e-41
-1.860000e+00 9.446153e-42
-1.850000e+00 7.845870e-42
-1.840000e+00 5.636022e-42
-1.830000e+00 2.773170e-42
-1.820000e+00 -7.300765e-43
-1.810000e+00 -4.852697e-42
-1.800000e+00 -9.549849e-42
-1.790000e+00 -1.473465e-41
-1.780000e+00 -2.029220e-41
-1.770000e+00 -2.605434e-41
-1.760000e+00 -3.183470e-41
-1.750000e+00 -3.740486e-41
-1.740000e+00 -4.249718e-41
-1.730000e+00 -4.683700e-41
-1.720000e+00 -5.009502e-41
-1.710000e+00 -5.195314e-41
-1.700000e+00 -5.208346e-41
-1.690000e+00 -5.016929e-41
-1.680000e+00 -4.591915e-41
-1.670000e+00 -3.907801e-41
-1.660000e+00 -2.945249e-41
-1.650000e+00 -1.692769e-41
-1.640000e+00 -1.483975e-42
-1.630000e+00 1.679596e-41
-1.620000e+00 3.769213e-41
-1.610000e+00 6.084438e-41
-1.600000e+00 8.573564e-41
-1.590000e+00 1.116947e-40
-1.580000e+00 1.378808e-40
-1.570000e+00 1.633045e-40
-1.560000e+00 1.868295e-40
-1.550000e+00 2.072002e-40
-1.540000e+00 2.230447e-40
-1.530000e+00 2.329519e-40
-1.520000e+00 2.354854e-40
-1.510000e+00 2.292594e-40
-1.500000e+00 2.129904e-40
-1.490000e+00 1.855417e-40
-1.480000e+00 1.460531e-40
-1.470000e+00 9.395846e-41
-1.460000e+00 2.910917e-41
-1.450000e+00 -4.817664e-41
-1.440000e+00 -1.370498e-40
-1.430000e+00 -2.360431e-40
-1.420000e+00 -3.430421e-40
-1.410000e+00 -4.552945e-40
-1.400000e+00 -5.693153e-40
-1.390000e+00 -6.809932e-40
-1.380000e+00 -7.855721e-40
-1.370000e+00 -8.778154e-40
-1.360000e+00 -9.520170e-40
-1.350000e+00 -1.002214e-39
-1.340000e+00 -1.022390e-39
-1.330000e+00 -1.006631e-39
-1.320000e+00 -9.494498e-40
-1.310000e+00 -8.460325e-40
-1.300000e+00 -6.925007e-40
-1.290000e+00 -4.863094e-40
-1.280000e+00 -2.264933e-40
-1.270000e+00 8.601871e-41
-1.260000e+00 4.480694e-40
-1.250000e+00 8.541250e-40
-1.240000e+00 1.295968e-39
-1.230000e+00 1.762689e-39
-1.220000e+00 2.240554e-39
-1.210000e+00 2.713169e-39
-1.200000e+00 3.161619e-39
-1.190000e+00 3.564714e-39
-1.180000e+00 3.899547e-39
-1.170000e+00 4.142032e-39
-1.160000e+00 4.267619e-39
-1.150000e+00 4.252207e-39
-1.140000e+00 4.073077e-39
-1.130000e+00 3.710026e-39
-1.120000e+00 3.146562e-39
-1.110000e+00 2.371092e-39
-1.100000e+00 1.378234e-39
-1.090000e+00 1.699243e-40
-1.080000e+00 -1.243383e-39
-1.070000e+00 -2.841746e-39
-1.060000e+00 -4.594981e-39
-1.050000e+00 -6.462164e-39
-1.040000e+00 -8.391431e-39
-1.030000e+00 -1.032019e-38
-1.020000e+00 -1.217577e-38
-1.010000e+00 -1.387655e-38
-1.000000e+00 -1.533365e-38
-9.900002e-01 -1.645304e-38
-9.800000e-01 -1.713839e-38
-9.700003e-01 -1.729420e-38
-9.600000e-01 -1.682967e-38
-9.500003e-01 -1.566276e-38
-9.400001e-01 -1.372468e-38
-9.300003e-01 -1.096464e-38
-9.200001e-01 -7.354522e-39
-9.100003e-01 -2.893537e-39
-9.000001e-01 2.387415e-39
-8.900003e-01 8.421957e-39
-8.800001e-01 1.510512e-38
-8.700004e-01 2.229126e-38
-8.600001e-01 2.979305e-38
-8.500004e-01 3.738209e-38
-8.400002e-01 4.479089e-38
-8.299999e-01 5.171678e-38
-8.200002e-01 5.782779e-38
-8.099999e-01 6.277034e-38
-8.000002e-01 6.617921e-38
-7.900000e-01 6.768884e-38
-7.800002e-01 6.694758e-38
-7.700000e-01 6.363220e-38
-7.600002e-01 5.746454e-38
-7.500000e-01 4.822875e-38
-7.400002e-01 3.578856e-38
-7.300000e-01 2.010506e-38
-7.200003e-01 1.252238e-39
-7.100000e-01 -2.056761e-38
-7.000003e-01 -4.501268e-38
-6.900001e-01 -7.159216e-38
-6.800003e-01 -9.966238e-38
-6.700001e-01 -1.284264e-37
-6.600003e-01 -1.569415e-37
-6.500001e-01 -1.841299e-37
-6.400003e-01 -2.087993e-37
-6.300001e-01 -2.296684e-37
-6.200004e-01 -2.454007e-37
-6.100001e-01 -2.546461e-37
-6.000004e-01 -2.560857e-37
-5.900002e-01 -2.484871e-37
-5.800004e-01 -2.307608e-37
-5.700002e-01 -2.020220e-37
-5.599999e-01 -1.616527e-37
-5.500002e-01 -1.093642e-37
-5.400000e-01 -4.525667e-38
-5.300002e-01 3.012785e-38
-5.200000e-01 1.157576e-37
-5.100002e-01 2.100785e-37
-5.000000e-01 3.109929e-37
-4.900002e-01 4.158527e-37
-4.800000e-01 5.214783e-37
-4.700003e-01 6.241925e-37
-4.600000e-01 7.198818e-37
-4.500003e-01 8.040791e-37
-4.400001e-01 8.720762e-37
-4.300003e-01 9.190540e-37
-4.200001e-01 9.402430e-37
-4.100003e-01 9.311005e-37
-4.000001e-01 8.875069e-37
-3.900003e-01 8.059743e-37
-3.800001e-01 6.838630e-37
-3.700004e-01 5.195994e-37
-3.600001e-01 3.128847e-37
-3.500004e-01 6.488997e-38
-3.400002e-01 -2.215754e-37
-3.300004e-01 -5.419292e-37
-3.200002e-01 -8.897221e-37
-3.099999e-01 -1.256613e-36
-3.000002e-01 -1.632372e-36
-2.900000e-01 -2.005007e-36
-2.800002e-01 -2.360910e-36
-2.700000e-01 -2.685129e-36
-2.600002e-01 -2.961706e-36
-2.500000e-01 -3.174092e-36
-2.400002e-01 -3.305653e-36
-2.300000e-01 -3.340255e-36
-2.200003e-01 -3.262895e-36
-2.100000e-01 -3.060392e-36
-2.000003e-01 -2.722108e-36
-1.900001e-01 -2.240691e-36
-1.800003e-01 -1.612766e-36
-1.700001e-01 -8.396393e-37
-1.600003e-01 7.211443e-38
-1.500001e-01 1.110143e-36
-1.400003e-01 2.255961e-36
-1.300001e-01 3.484722e-36
-1.200004e-01 4.765236e-36
-1.100001e-01 6.060180e-36
-1.000004e-01 7.326545e-36
-9.000015e-02 8.516387e-36
-8.000040e-02 9.577785e-36
-7.000017e-02 1.045614e-35
-5.999994e-02 1.109571e-35
-5.000019e-02 1.144137e-35
-3.999996e-02 1.144067e-35
-3.000021e-02 1.104596e-35
-1.999998e-02 1.021675e-35
-1.000023e-02 8.922075e-36
0.000000e+00 7.142825e-36
1.000023e-02 4.874079e-36
1.999950e-02 2.127123e-36
2.999973e-02 -1.068684e-36
3.999996e-02 -4.664585e-36
5.000019e-02 -8.591438e-36
5.999947e-02 -1.275936e-35
6.999969e-02 -1.705816e-35
7.999992e-02 -2.135828e-35
9.000015e-02 -2.551279e-35
9.999943e-02 -2.936011e-35
1.099997e-01 -3.272760e-35
1.199999e-01 -3.543602e-35
1.300001e-01 -3.730490e-35
1.399994e-01 -3.815846e-35
1.499996e-01 -3.783232e-35
1.599998e-01 -3.618062e-35
1.700001e-01 -3.308350e-35
1.799994e-01 -2.845455e-35
1.899996e-01 -2.224816e-35
1.999998e-01 -1.446641e-35
2.100000e-01 -5.165292e-36
2.200003e-01 5.540344e-36
2.299995e-01 1.747274e-35
2.399998e-01 3.038957e-35
2.500000e-01 4.398344e-35
2.600002e-01 5.788400e-35
2.699995e-01 7.166256e-35
2.799997e-01 8.483900e-35
2.900000e-01 9.689150e-35
3.000002e-01 1.072689e-34
3.099995e-01 1.154055e-34
3.199997e-01 1.207384e-34
3.299999e-01 1.227270e-34
3.400002e-01 1.208741e-34
3.499994e-01 1.147482e-34
3.599997e-01 1.040063e-34
3.699999e-01 8.841685e-35
3.800001e-01 6.788151e-35
3.899994e-01 4.245553e-35
3.999996e-01 1.236508e-35
4.099998e-01 -2.197893e-35
4.200001e-01 -5.997108e-35
4.299994e-01 -1.008077e-34
4.399996e-01 -1.434893e-34
4.499998e-01 -1.868288e-34
4.600000e-01 -2.294682e-34
4.700003e-01 -2.699040e-34
4.799995e-01 -3.065169e-34
4.899998e-01 -3.376145e-34
5.000000e-01 -3.614762e-34
5.100002e-01 -3.764095e-34
5.199995e-01 -3.808085e-34
5.299997e-01 -3.732177e-34
5.400000e-01 -3.524010e-34
5.500002e-01 -3.174081e-34
5.599995e-01 -2.676414e-34
5.699997e-01 -2.029201e-34
5.799999e-01 -1.235350e-34
5.900002e-01 -3.029879e-35
5.999994e-01 7.541882e-35
6.099997e-01 1.916692e-34
6.199999e-01 3.159188e-34
6.300001e-01 4.450625e-34
6.399994e-01 5.754555e-34
6.499996e-01 7.029725e-34
6.599998e-01 8.230838e-34
6.700001e-01 9.309580e-34
6.799994e-01 1.021582e-33
6.899996e-01 1.089910e-33
6.999998e-01 1.131022e-33
7.100000e-01 1.140303e-33
7.200003e-01 1.113628e-33
7.299995e-01 1.047564e-33
7.399998e-01 9.395546e-34
7.500000e-01 7.881174e-34
7.600002e-01 5.930123e-34
7.699995e-01 3.554002e-34
7.799997e-01 7.797123e-35
7.900000e-01 -2.349684e-34
8.000002e-01 -5.774461e-34
8.099995e-01 -9.418212e-34
8.199997e-01 -1.318840e-33
8.299999e-01 -1.697757e-33
8.400002e-01 -2.066501e-33
8.499994e-01 -2.411927e-33
8.599997e-01 -2.720117e-33
8.699999e-01 -2.976738e-33
8.800001e-01 -3.167474e-33
8.899994e-01 -3.278490e-33
8.999996e-01 -3.296933e-33
9.099998e-01 -3.211475e-33
9.200001e-01 -3.012848e-33
9.299994e-01 -2.694392e-33
9.399996e-01 -2.252557e-33
9.499998e-01 -1.687391e-33
9.600000e-01 -1.002937e-33
9.700003e-01 -2.075603e-34
9.799995e-01 6.858243e-34
9.899998e-01 1.659664e-33
1.000000e+00 2.691800e-33
1.010000e+00 3.755685e-33
1.020000e+00 4.820714e-33
1.030000e+00 5.852789e-33
1.040000e+00 6.815020e-33
1.050000e+00 7.668593e-33
1.059999e+00 8.373825e-33
1.070000e+00 8.891342e-33
1.080000e+00 9.183399e-33
1.090000e+00 9.215263e-33
1.099999e+00 8.956684e-33
1.110000e+00 8.383374e-33
1.120000e+00 7.478465e-33
1.130000e+00 6.233849e-33
1.139999e+00 4.651441e-33
1.150000e+00 2.744227e-33
1.160000e+00 5.370677e-34
1.170000e+00 -1.932795e-33
1.179999e+00 -4.615560e-33
1.190000e+00 -7.449069e-33
1.200000e+00 -1.035948e-32
1.210000e+00 -1.326233e-32
1.220000e+00 -1.606408e-32
1.230000e+00 -1.866415e-32
1.240000e+00 -2.095733e-32
1.250000e+00 -2.283675e-32
1.260000e+00 -2.419703e-32
1.270000e+00 -2.493785e-32
1.280000e+00 -2.496779e-32
1.290000e+00 -2.420810e-32
1.300000e+00 -2.259680e-32
1.309999e+00 -2.009229e-32
1.320000e+00 -1.667704e-32
1.330000e+00 -1.236073e-32
1.340000e+00 -7.182856e-33
1.349999e+00 -1.214737e-33
1.360000e+00 5.439334e-33
1.370000e+00 1.264185e-32
1.380000e+00 2.022294e-32
1.389999e+00 2.798222e-32
1.400000e+00 3.569200e-32
1.410000e+00 4.310158e-32
1.420000e+00 4.994280e-32
1.429999e+00 5.593668e-32
1.440000e+00 6.080119e-32
1.450000e+00 6.426001e-32
1.460000e+00 6.605191e-32
1.469999e+00 6.594058e-32
1.480000e+00 6.372505e-32
1.490000e+00 5.924984e-32
1.500000e+00 5.241463e-32
1.510000e+00 4.318367e-32
1.520000e+00 3.159356e-32
1.530000e+00 1.775995e-32
1.540000e+00 1.882333e-33
1.550000e+00 -1.575337e-32
1.559999e+00 -3.477476e-32
1.570000e+00 -5.472535e-32
1.580000e+00 -7.507017e-32
1.590000e+00 -9.520477e-32
1.599999e+00 -1.144663e-31
1.610000e+00 -1.321491e-31
1.620000e+00 -1.475219e-31
1.630000e+00 -1.598487e-31
1.639999e+00 -1.684117e-31
1.650000e+00 -1.725358e-31
1.660000e+00 -1.716146e-31
1.670000e+00 -1.651369e-31
1.679999e+00 -1.527137e-31
1.690000e+00 -1.341025e-31
1.700000e+00 -1.092316e-31
1.710000e+00 -7.822019e-32
1.719999e+00 -4.139502e-32
1.730000e+00 6.979158e-34
1.740000e+00 4.728671e-32
1.750000e+00 9.737433e-32
1.760000e+00 1.497458e-31
1.770000e+00 2.029835e-31
1.780000e+00 2.554893e-31
1.790000e+00 3.055174e-31
1.800000e+00 3.512115e-31
1.809999e+00 3.906533e-31
1.820000e+00 4.219153e-31
1.830000e+00 4.431204e-31
1.840000e+00 4.525070e-31
1.849999e+00 4.484962e-31
1.860000e+00 4.297621e-31
1.870000e+00 3.952983e-31
1.880000e+00 3.444874e-31
1.889999e+00 2.771592e-31
1.900000e+00 1.936454e-31
1.910000e+00 9.482371e-32
1.920000e+00 -1.785148e-32
1.929999e+00 -1.423317e-31
1.940000e+00 -2.759744e-31
1.950000e+00 -4.155616e-31
1.960000e+00 -5.573370e-31
1.969999e+00 -6.970660e-31
1.980000e+00 -8.301148e-31
1.990000e+00 -9.515513e-31
2.000000e+00 -1.056267e-30
2.010000e+00 -1.139114e-30
2.020000e+00 -1.195063e-30
2.030000e+00 -1.219373e-30
2.040000e+00 -1.207764e-30
2.050000e+00 -1.156605e-30
2.059999e+00 -1.063096e-30
2.070000e+00 -9.254432e-31
2.080000e+00 -7.430250e-31
2.090000e+00 -5.165409e-31
2.099999e+00 -2.481324e-31
2.110000e+00 5.852339e-32
2.120000e+00 3.981580e-31
2.130000e+00 7.639002e-31
2.139999e+00 1.147306e-30
2.150000e+00 1.538451e-30
2.160000e+00 1.926062e-30
2.170000e+00 2.297717e-30
2.179999e+00 2.640096e-30
2.190000e+00 2.939287e-30
2.200000e+00 3.181138e-30
2.210000e+00 3.351670e-30
2.219999e+00 3.437508e-30
2.230000e+00 3.426358e-30
2.240000e+00 3.307494e-30
2.250000e+00 3.072260e-30
2.260000e+00 2.714553e-30
2.270000e+00 2.231296e-30
2.280000e+00 1.622860e-30
2.290000e+00 8.934399e-31
2.300000e+00 5.135490e-32
2.309999e+00 -8.907468e-31
2.320000e+00 -1.915777e-30
2.330000e+00 -3.002222e-30
2.340000e+00 -4.124296e-30
2.349999e+00 -5.252222e-30
2.360000e+00 -6.352666e-30
2.370000e+00 -7.389331e-30
2.380000e+00 -8.323692e-30
2.389999e+00 -9.115888e-30
2.400000e+00 -9.725743e-30
2.410000e+00 -1.011389e-29
2.420000e+00 -1.024306e-29
2.429999e+00 -1.007934e-29
2.440000e+00 -9.593611e-30
2.450000e+00 -8.762877e-30
2.460000e+00 -7.571651e-30
2.469999e+00 -6.013230e-30
2.480000e+00 -4.090880e-30
2.490000e+00 -1.818866e-30
2.500000e+00 7.767409e-31
2.510000e+00 3.657479e-30
2.520000e+00 6.772228e-30
2.530000e+00 1.005721e-29
2.540000e+00 1.343649e-29
2.550000e+00 1.682266e-29
2.559999e+00 2.011816e-29
2.570000e+00 2.321686e-29
2.580000e+00 2.600613e-29
2.590000e+00 2.836933e-29
2.599999e+00 3.018862e-29
2.610000e+00 3.134822e-29
2.620000e+00 3.173787e-29
2.630000e+00 3.125662e-29
2.639999e+00 2.981664e-29
2.650000e+00 2.734723e-29
2.660000e+00 2.379872e-29
2.670000e+00 1.914621e-29
2.679999e+00 1.339304e-29
2.690000e+00 6.573938e-30
2.700000e+00 -1.242457e-30
2.710000e+00 -9.951763e-30
2.719999e+00 -1.941259e-29
2.730000e+00 -2.944642e-29
2.740000e+00 -3.983829e-29
2.750000e+00 -5.033872e-29
2.760000e+00 -6.066670e-29
2.770000e+00 -7.051380e-29
2.780000e+00 -7.954968e-29
2.790000e+00 -8.742869e-29
2.800000e+00 -9.379760e-29
2.809999e+00 -9.830443e-29
2.820000e+00 -1.006082e-28
2.830000e+00 -1.003895e-28
2.840000e+00 -9.736174e-29
2.849999e+00 -9.128234e-29
2.860000e+00 -8.196452e-29
2.870000e+00 -6.928856e-29
2.880000e+00 -5.321261e-29
2.889999e+00 -3.378239e-29
2.900000e+00 -1.114002e-29
2.910000e+00 1.446920e-29
2.920000e+00 4.269166e-29
2.929999e+00 7.306301e-29
2.940000e+00 1.050081e-28
2.950000e+00 1.378440e-28
2.960000e+00 1.707864e-28
2.969999e+00 2.029590e-28
2.980000e+00 2.334067e-28
2.990000e+00 2.611125e-28
3.000000e+00 2.850175e-28
3.010000e+00 3.040442e-28
3.020000e+00 3.171237e-28
3.030000e+00 3.232239e-28
3.040000e+00 3.213824e-28
3.050000e+00 3.107386e-28
3.059999e+00 2.905682e-28
3.070000e+00 2.603175e-28
3.080000e+00 2.196372e-28
3.090000e+00 1.684138e-28
3.099999e+00 1.067992e-28
3.110000e+00 3.523604e-29