-8.000000e+00 0.000000e+00
-7.950000e+00 0.000000e+00
-7.900000e+00 0.000000e+00
-7.850000e+00 0.000000e+00
-7.800000e+00 0.000000e+00
-7.750000e+00 0.000000e+00
-7.700000e+00 0.000000e+00
-7.650000e+00 0.000000e+00
-7.600000e+00 0.000000e+00
-7.550000e+00 0.000000e+00
-7.500000e+00 0.000000e+00
-7.450000e+00 0.000000e+00
-7.400000e+00 0.000000e+00
-7.350000e+00 0.000000e+00
-7.300000e+00 0.000000e+00
-7.250000e+00 0.000000e+00
-7.200000e+00 0.000000e+00
-7.150000e+00 0.000000e+00
-7.100000e+00 0.000000e+00
-7.050000e+00 0.000000e+00
-7.000000e+00 -1.401298e-45
-6.950000e+00 -1.961818e-44
-6.900000e+00 -1.891753e-43
-6.850000e+00 -1.202314e-42
-6.800000e+00 -6.518840e-42
-6.750000e+00 -2.895783e-41
-6.700000e+00 -1.039063e-40
-6.650000e+00 -2.968665e-40
-6.600000e+00 -6.474644e-40
-6.550000e+00 -9.233730e-40
-6.500000e+00 -1.104013e-40
-6.450000e+00 3.925251e-39
-6.400000e+00 1.298669e-38
-6.350000e+00 2.292084e-38
-6.300000e+00 1.473333e-38
-6.250000e+00 -4.519315e-38
-6.200000e+00 -1.698497e-37
-6.150000e+00 -2.695526e-37
-6.100000e+00 -9.316236e-38
-6.050000e+00 6.181012e-37
-6.000000e+00 1.621578e-36
-5.950000e+00 1.654729e-36
-5.900000e+00 -1.004938e-36
-5.850000e+00 -6.046981e-36
-5.800000e+00 -8.489616e-36
-5.750000e+00 -1.188051e-36
-5.700000e+00 1.461866e-35
-5.650000e+00 2.146132e-35
-5.600000e+00 3.216301e-36
-5.550000e+00 -1.330323e-35
-5.500000e+00 3.699453e-35
-5.450000e+00 1.181893e-34
-5.400000e+00 -7.292481e-35
-5.350000e+00 -8.487059e-34
-5.300000e+00 -1.526053e-33
-5.250000e+00 3.136200e-34
-5.200000e+00 6.586176e-33
-5.150000e+00 1.230184e-32
-5.100000e+00 1.716540e-33
-5.050000e+00 -3.785451e-32
-5.000000e+00 -7.953280e-32
-4.950000e+00 -3.464662e-32
-4.900000e+00 1.772484e-31
-4.850000e+00 4.399925e-31
-4.800000e+00 3.109953e-31
-4.750000e+00 -6.761794e-31
-4.700000e+00 -2.126181e-30
-4.650000e+00 -2.063694e-30
-4.600000e+00 1.951129e-30
-4.550000e+00 9.020358e-30
-4.500000e+00 1.125375e-29
-4.450000e+00 -2.840976e-30
-4.400000e+00 -3.345817e-29
-4.350000e+00 -5.254844e-29
-4.300000e+00 -1.130045e-29
-4.250000e+00 1.067366e-28
-4.200000e+00 2.141526e-28
-4.150000e+00 1.237734e-28
-4.100000e+00 -2.802261e-28
-4.050000e+00 -7.675348e-28
-4.000000e+00 -6.905452e-28
-3.950000e+00 5.245723e-28
-3.900000e+00 2.415248e-27
-3.850000e+00 2.968157e-27
-3.800000e+00 -1.617772e-28
-3.750000e+00 -6.580150e-27
-3.700000e+00 -1.072211e-26
-3.650000e+00 -4.278797e-27
-3.600000e+00 1.491265e-26
-3.550000e+00 3.350311e-26
-3.500000e+00 2.546696e-26
-3.450000e+00 -2.476118e-26
-3.400000e+00 -9.102082e-26
-3.350000e+00 -1.008625e-25
-3.300000e+00 1.133973e-26
-3.250000e+00 2.118320e-25
-3.200000e+00 3.224089e-25
-3.150000e+00 1.233824e-25
-3.100000e+00 -4.015131e-25
-3.050000e+00 -8.728979e-25
-3.000000e+00 -6.642239e-25
-2.950000e+00 5.199512e-25
-2.900000e+00 2.016899e-24
-2.850000e+00 2.269291e-24
-2.800000e+00 3.005785e-26
-2.750000e+00 -3.904945e-24
-2.700000e+00 -6.148128e-24
-2.650000e+00 -2.874787e-24
-2.600000e+00 5.972177e-24
-2.550000e+00 1.399777e-23
-2.500000e+00 1.142194e-23
-2.450000e+00 -5.805744e-24
-2.400000e+00 -2.749668e-23
-2.350000e+00 -3.169567e-23
-2.300000e+00 -2.470883e-24
-2.250000e+00 4.773822e-23
-2.200000e+00 7.429655e-23
-2.150000e+00 3.150094e-23
-2.100000e+00 -7.497709e-23
-2.050000e+00 -1.614979e-22
-2.000000e+00 -1.132634e-22
-1.950000e+00 1.021721e-22
-1.900000e+00 3.426193e-22
-1.850000e+00 3.404702e-22
-1.800000e+00 -7.061481e-23
-1.750000e+00 -6.946532e-22
-1.700000e+00 -9.527186e-22
-1.650000e+00 -2.842884e-22
-1.600000e+00 1.203583e-21
-1.550000e+00 2.402104e-21
-1.500000e+00 1.758687e-21
-1.450000e+00 -1.305288e-21
-1.400000e+00 -5.107332e-21
-1.350000e+00 -6.026228e-21
-1.300000e+00 -1.118429e-21
-1.250000e+00 8.303619e-21
-1.200000e+00 1.531133e-20
-1.150000e+00 1.103207e-20
-1.100000e+00 -7.360708e-21
-1.050000e+00 -2.996454e-20
-1.000000e+00 -3.643735e-20
-9.499998e-01 -1.031024e-20
-9.000001e-01 4.205760e-20
-8.499999e-01 8.427589e-20
-7.999997e-01 6.853785e-20
-7.500000e-01 -2.364548e-20
-6.999998e-01 -1.463873e-19
-6.500001e-01 -1.978111e-19
-5.999999e-01 -8.783755e-20
-5.499997e-01 1.680684e-19
-5.000000e-01 4.060162e-19
-4.499998e-01 3.903336e-19
-4.000001e-01 -5.022345e-22
-3.499999e-01 -5.989724e-19
-2.999997e-01 -9.563639e-19
-2.500000e-01 -6.187978e-19
-1.999998e-01 4.535971e-19
-1.500001e-01 1.645627e-18
-9.999990e-02 1.935019e-18
-4.999971e-02 6.338675e-19
0.000000e+00 -1.828075e-18
5.000019e-02 -3.779522e-18
1.000004e-01 -3.259645e-18
1.500006e-01 3.380220e-19
1.999998e-01 5.122914e-18
2.500000e-01 7.333549e-18
3.000002e-01 3.941381e-18
3.500004e-01 -4.280183e-18
4.000006e-01 -1.183035e-17
4.499998e-01 -1.149440e-17
5.000000e-01 -2.695475e-19
5.500002e-01 1.595948e-17
6.000004e-01 2.387905e-17
6.500006e-01 1.180171e-17
6.999998e-01 -1.851763e-17
7.500000e-01 -4.688881e-17
8.000002e-01 -4.433457e-17
8.500004e-01 4.391941e-18
9.000006e-01 7.953898e-17
9.499998e-01 1.258980e-16
1.000000e+00 8.353191e-17
1.050000e+00 -6.206262e-17
1.100000e+00 -2.438224e-16
1.150001e+00 -3.275024e-16
1.200000e+00 -1.876469e-16
1.250000e+00 1.879604e-16
1.300000e+00 6.336255e-16
1.350000e+00 8.455903e-16
1.400001e+00 5.396482e-16
1.450000e+00 -3.370778e-16
1.500000e+00 -1.461220e-15
1.550000e+00 -2.174220e-15
1.600000e+00 -1.757149e-15
1.650001e+00 1.289610e-16
1.700000e+00 3.022635e-15
1.750000e+00 5.520141e-15
1.800000e+00 5.655265e-15
1.850000e+00 1.886146e-15
1.900001e+00 -5.558737e-15
1.950000e+00 -1.366882e-14
2.000000e+00 -1.697342e-14
2.050000e+00 -9.955221e-15
2.100000e+00 8.781700e-15
2.150001e+00 3.264543e-14
2.200000e+00 4.685682e-14
2.250000e+00 3.466502e-14
2.300000e+00 -1.073781e-14
2.350000e+00 -7.461326e-14
2.400001e+00 -1.191125e-13
2.450000e+00 -9.930256e-14
2.500000e+00 5.637336e-15
2.550000e+00 1.624763e-13
2.600000e+00 2.801633e-13
2.650001e+00 2.497292e-13
2.700000e+00 1.938318e-14
2.750000e+00 -3.365947e-13
2.800000e+00 -6.128261e-13
2.850000e+00 -5.670565e-13
2.900001e+00 -8.734391e-14
2.950000e+00 6.640693e-13
3.000000e+00 1.252248e-12
3.050000e+00 1.179248e-12
3.100000e+00 2.302019e-13
3.150001e+00 -1.251765e-12
3.200000e+00 -2.399783e-12
3.250000e+00 -2.262733e-12
3.300000e+00 -4.741280e-13
3.350000e+00 2.266517e-12
3.400001e+00 4.328662e-12
3.450000e+00 4.019870e-12
3.500000e+00 7.960660e-13
3.550000e+00 -3.970213e-12
3.600000e+00 -7.376840e-12
3.650001e+00 -6.617631e-12
3.700000e+00 -1.034770e-12
3.750000e+00 6.780819e-12
3.800000e+00 1.192987e-11
3.850000e+00 1.008573e-11
3.900001e+00 7.547775e-13
3.950000e+00 -1.136144e-11
4.000000e+00 -1.840485e-11
4.050000e+00 -1.420410e-11
4.100000e+00 8.890008e-13
4.150001e+00 1.869240e-11
4.200000e+00 2.722844e-11
4.250000e+00 1.844080e-11
4.300000e+00 -5.156183e-12
4.350000e+00 -2.996976e-11
4.400001e+00 -3.869949e-11
4.450000e+00 -2.195125e-11
4.500000e+00 1.343081e-11
4.550000e+00 4.604045e-11
4.600000e+00 5.240541e-11
4.650001e+00 2.337804e-11
4.700000e+00 -2.672084e-11
4.750000e+00 -6.620431e-11
4.800000e+00 -6.572964e-11
4.850000e+00 -1.971479e-11
4.900001e+00 4.584427e-11
4.950000e+00 8.719107e-11
5.000000e+00 7.178153e-11
5.050000e+00 3.651020e-12
5.100000e+00 -7.409543e-11
5.150001e+00 -1.052221e-10
5.200000e+00 -6.010095e-11
5.250000e+00 3.805537e-11
5.300000e+00 1.221845e-10
5.350000e+00 1.245730e-10
5.400001e+00 2.756441e-11
5.450000e+00 -1.147890e-10
5.500000e+00 -2.047984e-10
5.550000e+00 -1.657794e-10
5.600000e+00 -9.699749e-13
5.650001e+00 1.974385e-10
5.700000e+00 3.024287e-10
5.750000e+00 2.375692e-10
5.800000e+00 3.448387e-11
5.850000e+00 -1.831100e-10
5.900001e+00 -2.841804e-10
5.950000e+00 -2.261838e-10
6.000000e+00 -8.852997e-11
6.050000e+00 -9.993224e-12
6.100000e+00 -6.856328e-11
6.150001e+00 -1.951384e-10
6.200000e+00 -2.009243e-10
6.250000e+00 7.965253e-11
6.300000e+00 6.232062e-10
6.350000e+00 1.160440e-09
6.400001e+00 1.301568e-09
6.450000e+00 7.897572e-10
6.500000e+00 -2.829600e-10
6.550000e+00 -1.467549e-09
6.600000e+00 -2.202372e-09
6.650001e+00 -2.171533e-09
6.700000e+00 -1.527394e-09
6.750000e+00 -7.867563e-10
6.800000e+00 -4.258730e-10
6.850000e+00 -4.362162e-10
6.900001e+00 -1.854168e-10
6.950000e+00 1.233967e-09
7.000000e+00 4.314462e-09
7.050000e+00 8.531620e-09
7.100000e+00 1.227988e-08
7.150001e+00 1.349744e-08
7.200000e+00 1.067780e-08
7.250000e+00 3.658235e-09
7.300000e+00 -6.348842e-09
7.350000e+00 -1.756159e-08
7.400001e+00 -2.879386e-08
7.450000e+00 -4.022083e-08
7.500000e+00 -5.320751e-08
7.550000e+00 -6.927931e-08
7.600000e+00 -8.892857e-08
7.650001e+00 -1.111274e-07
7.700000e+00 -1.339887e-07
7.750000e+00 -1.562318e-07
7.800000e+00 -1.784935e-07
7.850000e+00 -2.035313e-07
7.900001e+00 -2.350517e-07
7.950000e+00 -2.758320e-07
8.000000e+00 -3.263630e-07
8.050001e+00 -3.849856e-07
8.100000e+00 -4.495487e-07
8.150000e+00 -5.195762e-07
8.200001e+00 -5.975187e-07
8.250000e+00 -6.881871e-07
8.300001e+00 -7.966610e-07
8.350000e+00 -9.260008e-07
8.400000e+00 -1.076298e-06
8.450001e+00 -1.245785e-06
8.500000e+00 -1.433389e-06
8.550001e+00 -1.641151e-06
8.600000e+00 -1.875007e-06
8.650000e+00 -2.143453e-06
8.700001e+00 -2.454952e-06
8.750000e+00 -2.815700e-06
8.800001e+00 -3.229060e-06
8.850000e+00 -3.696833e-06
8.900000e+00 -4.221394e-06
8.950001e+00 -4.807395e-06
9.000000e+00 -5.462202e-06
9.050001e+00 -6.195317e-06
9.100000e+00 -7.017575e-06
9.150000e+00 -7.940905e-06
9.200001e+00 -8.978605e-06
9.250000e+00 -1.014536e-05
9.300001e+00 -1.145643e-05
9.350000e+00 -1.292611e-05
9.400000e+00 -1.456651e-05
9.450001e+00 -1.638801e-05
9.500000e+00 -1.840186e-05
9.550001e+00 -2.062385e-05
9.600000e+00 -2.307680e-05
9.650000e+00 -2.579024e-05
9.700001e+00 -2.879681e-05
9.750000e+00 -3.212743e-05
9.800001e+00 -3.580792e-05
9.850000e+00 -3.985952e-05
9.900000e+00 -4.430271e-05
9.950001e+00 -4.916260e-05
1.000000e+01 -5.447207e-05
1.005000e+01 -6.027113e-05
1.010000e+01 -6.660276e-05
1.015000e+01 -7.350853e-05
1.020000e+01 -8.102637e-05
1.025000e+01 -8.919225e-05
1.030000e+01 -9.804408e-05
1.035000e+01 -1.076250e-04
1.040000e+01 -1.179833e-04
1.045000e+01 -1.291683e-04
1.050000e+01 -1.412260e-04
1.055000e+01 -1.541959e-04
1.060000e+01 -1.681131e-04
1.065000e+01 -1.830131e-04
1.070000e+01 -1.989382e-04
1.075000e+01 -2.159378e-04
1.080000e+01 -2.340659e-04
1.085000e+01 -2.533734e-04
1.090000e+01 -2.738995e-04
1.095000e+01 -2.956700e-04
1.100000e+01 -3.186983e-04
1.105000e+01 -3.429935e-04
1.110000e+01 -3.685662e-04
1.115000e+01 -3.954330e-04
1.120000e+01 -4.236131e-04
1.125000e+01 -4.531227e-04
1.130000e+01 -4.839668e-04
1.135000e+01 -5.161329e-04
1.140000e+01 -5.495908e-04
1.145000e+01 -5.842946e-04
1.150000e+01 -6.201867e-04
1.155000e+01 -6.572031e-04
1.160000e+01 -6.952736e-04
1.165000e+01 -7.343225e-04
1.170000e+01 -7.742652e-04
1.175000e+01 -8.150044e-04
1.180000e+01 -8.564261e-04
1.185000e+01 -8.983985e-04
1.190000e+01 -9.407659e-04
1.195000e+01 -9.833574e-04
1.200000e+01 -1.025987e-03
1.205000e+01 -1.068454e-03
1.210000e+01 -1.110549e-03
1.215000e+01 -1.152055e-03
1.220000e+01 -1.192739e-03
1.225000e+01 -1.232357e-03
1.230000e+01 -1.270648e-03
1.235000e+01 -1.307338e-03
1.240000e+01 -1.342136e-03
1.245000e+01 -1.374747e-03
1.250000e+01 -1.404865e-03
1.255000e+01 -1.432182e-03
1.260000e+01 -1.456385e-03
1.265000e+01 -1.477160e-03
1.270000e+01 -1.494185e-03
1.275000e+01 -1.507144e-03
1.280000e+01 -1.515720e-03
1.285000e+01 -1.519605e-03
1.290000e+01 -1.518499e-03
1.295000e+01 -1.512112e-03
1.300000e+01 -1.500170e-03
1.305000e+01 -1.482413e-03
1.310000e+01 -1.458599e-03
1.315000e+01 -1.428506e-03
1.320000e+01 -1.391938e-03
1.325000e+01 -1.348723e-03
1.330000e+01 -1.298720e-03
1.335000e+01 -1.241820e-03
1.340000e+01 -1.177948e-03
1.345000e+01 -1.107067e-03
1.350000e+01 -1.029176e-03
1.355000e+01 -9.443134e-04
1.360000e+01 -8.525575e-04
1.365000e+01 -7.540310e-04
1.370000e+01 -6.488971e-04
1.375000e+01 -5.373652e-04
1.380000e+01 -4.196905e-04
1.385000e+01 -2.961752e-04
1.390000e+01 -1.671654e-04
1.395000e+01 -3.305076e-05
1.400000e+01 1.057384e-04
1.405000e+01 2.487329e-04
1.410000e+01 3.954265e-04
1.415000e+01 5.452751e-04
1.420000e+01 6.977011e-04
1.425000e+01 8.520912e-04
1.430000e+01 1.007802e-03
1.435000e+01 1.164163e-03
1.440000e+01 1.320485e-03
1.445000e+01 1.476062e-03
1.450000e+01 1.630178e-03
1.455000e+01 1.782112e-03
1.460000e+01 1.931138e-03
1.465000e+01 2.076532e-03
1.470000e+01 2.217573e-03
1.475000e+01 2.353556e-03
1.480000e+01 2.483785e-03
1.485000e+01 2.607593e-03
1.490000e+01 2.724333e-03
1.495000e+01 2.833395e-03
1.500000e+01 2.934201e-03
1.505000e+01 3.026212e-03
1.510000e+01 3.108930e-03
1.515000e+01 3.181907e-03
1.520000e+01 3.244745e-03
1.525000e+01 3.297101e-03
1.530000e+01 3.338691e-03
1.535000e+01 3.369291e-03
1.540000e+01 3.388730e-03
1.545000e+01 3.396913e-03
1.550000e+01 3.393787e-03
1.555000e+01 3.379375e-03
1.560000e+01 3.353753e-03
1.565000e+01 3.317066e-03
1.570000e+01 3.269514e-03
1.575000e+01 3.211365e-03
1.580000e+01 3.142940e-03
1.585000e+01 3.064610e-03
1.590000e+01 2.976802e-03
1.595000e+01 2.879998e-03
1.600000e+01 2.774714e-03
1.605000e+01 2.661516e-03
1.610000e+01 2.541004e-03
1.615000e+01 2.413812e-03
1.620000e+01 2.280595e-03
1.625000e+01 2.142039e-03
1.630000e+01 1.998839e-03
1.635000e+01 1.851708e-03
1.640000e+01 1.701363e-03
1.645000e+01 1.548527e-03
1.650000e+01 1.393924e-03
1.655000e+01 1.238270e-03
1.660000e+01 1.082276e-03
1.665000e+01 9.266373e-04
1.670000e+01 7.720291e-04
1.675000e+01 6.191012e-04
1.680000e+01 4.684746e-04
1.685000e+01 3.207378e-04
1.690000e+01 1.764466e-04
1.695000e+01 3.612170e-05
1.700000e+01 -9.975263e-05
1.705000e+01 -2.307311e-04
1.710000e+01 -3.564095e-04
1.715000e+01 -4.764271e-04
1.720000e+01 -5.904678e-04
1.725000e+01 -6.982592e-04
1.730000e+01 -7.995748e-04
1.735000e+01 -8.942295e-04
1.740000e+01 -9.820826e-04
1.745000e+01 -1.063035e-03
1.750000e+01 -1.137029e-03
1.755000e+01 -1.204050e-03
1.760000e+01 -1.264120e-03
1.765000e+01 -1.317300e-03
1.770000e+01 -1.363684e-03
1.775000e+01 -1.403398e-03
1.780000e+01 -1.436599e-03
1.785000e+01 -1.463472e-03
1.790000e+01 -1.484227e-03
1.795000e+01 -1.499093e-03
1.800000e+01 -1.508320e-03
1.805000e+01 -1.512169e-03
1.810000e+01 -1.510919e-03
1.815000e+01 -1.504858e-03
1.820000e+01 -1.494291e-03
1.825000e+01 -1.479531e-03
1.830000e+01 -1.460893e-03
1.835000e+01 -1.438694e-03
1.840000e+01 -1.413251e-03
1.845000e+01 -1.384874e-03
1.850000e+01 -1.353869e-03
1.855000e+01 -1.320536e-03
1.860000e+01 -1.285172e-03
1.865000e+01 -1.248061e-03
1.870000e+01 -1.209484e-03
1.875000e+01 -1.169706e-03
1.880000e+01 -1.128983e-03
1.885000e+01 -1.087557e-03
1.890000e+01 -1.045653e-03
1.895000e+01 -1.003485e-03
1.900000e+01 -9.612484e-04
1.905000e+01 -9.191255e-04
1.910000e+01 -8.772875e-04
1.915000e+01 -8.358918e-04
1.920000e+01 -7.950811e-04
1.925000e+01 -7.549864e-04
1.930000e+01 -7.157190e-04
1.935000e+01 -6.773801e-04
1.940000e+01 -6.400553e-04
1.945000e+01 -6.038185e-04
1.950000e+01 -5.687314e-04
1.955000e+01 -5.348432e-04
1.960000e+01 -5.021917e-04
1.965000e+01 -4.708045e-04
1.970000e+01 -4.407022e-04
1.975000e+01 -4.118995e-04
1.980000e+01 -3.844031e-04
1.985000e+01 -3.582116e-04
1.990000e+01 -3.333153e-04
1.995000e+01 -3.096960e-04
2.000000e+01 -2.873296e-04
2.005000e+01 -2.661899e-04
2.010000e+01 -2.462480e-04
2.015000e+01 -2.274735e-04
2.020000e+01 -2.098318e-04
2.025000e+01 -1.932849e-04
2.030000e+01 -1.777930e-04
2.035000e+01 -1.633152e-04
2.040000e+01 -1.498109e-04
2.045000e+01 -1.372392e-04
2.050000e+01 -1.255585e-04
2.055000e+01 -1.147254e-04
2.060000e+01 -1.046963e-04
2.065000e+01 -9.542848e-05
2.070000e+01 -8.687985e-05
2.075000e+01 -7.901015e-05
2.080000e+01 -7.177941e-05
2.085000e+01 -6.514825e-05
2.090000e+01 -5.907897e-05
2.095000e+01 -5.353617e-05
2.100000e+01 -4.848687e-05
2.105000e+01 -4.389980e-05
2.110000e+01 -3.974417e-05
2.115000e+01 -3.598988e-05
2.120000e+01 -3.260907e-05
2.125000e+01 -2.957757e-05
2.130000e+01 -2.687545e-05
2.135000e+01 -2.448603e-05
2.140000e+01 -2.239407e-05
2.145000e+01 -2.058479e-05
2.150000e+01 -1.904447e-05
2.155000e+01 -1.776204e-05
2.160000e+01 -1.672987e-05
2.165000e+01 -1.594345e-05
2.170000e+01 -1.540013e-05
2.175000e+01 -1.509868e-05
2.180000e+01 -1.504024e-05
2.185000e+01 -1.522998e-05
2.190000e+01 -1.567814e-05
2.195000e+01 -1.639920e-05
2.200000e+01 -1.740988e-05
2.205000e+01 -1.872752e-05
2.210000e+01 -2.037051e-05
2.215000e+01 -2.236041e-05
2.220000e+01 -2.472430e-05
2.225000e+01 -2.749567e-05
2.230000e+01 -3.071371e-05
2.235000e+01 -3.442213e-05
2.240000e+01 -3.866887e-05
2.245000e+01 -4.350754e-05
2.250000e+01 -4.899891e-05
2.255000e+01 -5.521163e-05
2.260000e+01 -6.222149e-05
2.265000e+01 -7.011035e-05
2.270000e+01 -7.896558e-05
2.275000e+01 -8.888160e-05
2.280000e+01 -9.996146e-05
2.285000e+01 -1.123181e-04
2.290000e+01 -1.260741e-04
2.295000e+01 -1.413610e-04
2.300000e+01 -1.583196e-04
2.305000e+01 -1.771006e-04
2.310000e+01 -1.978661e-04
2.315000e+01 -2.207908e-04
2.320000e+01 -2.460614e-04
2.325000e+01 -2.738752e-04
2.330000e+01 -3.044398e-04
2.335000e+01 -3.379734e-04
2.340000e+01 -3.747058e-04
2.345000e+01 -4.148785e-04
2.350000e+01 -4.587442e-04
2.355000e+01 -5.065663e-04
2.360000e+01 -5.586153e-04
2.365000e+01 -6.151727e-04
2.370000e+01 -6.765281e-04
2.375000e+01 -7.429802e-04
2.380000e+01 -8.148345e-04
2.385000e+01 -8.924009e-04
2.390000e+01 -9.759915e-04
2.395000e+01 -1.065919e-03
2.400000e+01 -1.162494e-03
2.405000e+01 -1.266031e-03
2.410000e+01 -1.376836e-03
2.415000e+01 -1.495211e-03
2.420000e+01 -1.621441e-03
2.425000e+01 -1.755796e-03
2.430000e+01 -1.898521e-03
2.435000e+01 -2.049846e-03
2.440000e+01 -2.209972e-03
2.445000e+01 -2.379069e-03
2.450000e+01 -2.557278e-03
2.455000e+01 -2.744698e-03
2.460000e+01 -2.941386e-03
2.465000e+01 -3.147346e-03
2.470000e+01 -3.362533e-03
2.475000e+01 -3.586844e-03
2.480000e+01 -3.820108e-03
2.485000e+01 -4.062087e-03
2.490000e+01 -4.312467e-03
2.495000e+01 -4.570857e-03
2.500000e+01 -4.836788e-03
2.505000e+01 -5.109698e-03
2.510000e+01 -5.388937e-03
2.515000e+01 -5.673769e-03
2.520000e+01 -5.963347e-03
2.525000e+01 -6.256731e-03
2.530000e+01 -6.552873e-03
2.535000e+01 -6.850628e-03
2.540000e+01 -7.148744e-03
2.545000e+01 -7.445859e-03
2.550000e+01 -7.740520e-03
2.555000e+01 -8.031166e-03
2.560000e+01 -8.316142e-03
2.565000e+01 -8.593693e-03
2.570000e+01 -8.861986e-03
2.575000e+01 -9.119101e-03
2.580000e+01 -9.363044e-03
2.585000e+01 -9.591752e-03
2.590000e+01 -9.803100e-03
2.595000e+01 -9.994919e-03
2.600000e+01 -1.016502e-02
2.605000e+01 -1.031116e-02
2.610000e+01 -1.043113e-02
2.615000e+01 -1.052272e-02
2.620000e+01 -1.058370e-02
2.625000e+01 -1.061194e-02
2.630000e+01 -1.060532e-02
2.635000e+01 -1.056183e-02
2.640000e+01 -1.047951e-02
2.645000e+01 -1.035655e-02
2.650000e+01 -1.019125e-02
2.655000e+01 -9.982063e-03
2.660000e+01 -9.727624e-03
2.665000e+01 -9.426732e-03
2.670000e+01 -9.078409e-03
2.675000e+01 -8.681898e-03
2.680000e+01 -8.236668e-03
2.685000e+01 -7.742448e-03
2.690000e+01 -7.199232e-03
2.695000e+01 -6.607291e-03
2.700000e+01 -5.967188e-03
2.705000e+01 -5.279779e-03
2.710000e+01 -4.546232e-03
2.715000e+01 -3.768016e-03
2.720000e+01 -2.946917e-03
2.725000e+01 -2.085027e-03
2.730000e+01 -1.184758e-03
2.735000e+01 -2.488241e-04
2.740000e+01 7.197697e-04
2.745000e+01 1.717731e-03
2.750000e+01 2.741495e-03
2.755000e+01 3.787241e-03
2.760000e+01 4.850901e-03
2.765000e+01 5.928194e-03
2.770000e+01 7.014633e-03
2.775000e+01 8.105569e-03
2.780000e+01 9.196194e-03
2.785000e+01 1.028160e-02
2.790000e+01 1.135678e-02
2.795000e+01 1.241669e-02
2.800000e+01 1.345623e-02
2.805000e+01 1.447036e-02
2.810000e+01 1.545405e-02
2.815000e+01 1.640237e-02
2.820000e+01 1.731049e-02
2.825000e+01 1.817375e-02
2.830000e+01 1.898765e-02
2.835000e+01 1.974792e-02
2.840000e+01 2.045053e-02
2.845000e+01 2.109175e-02
2.850000e+01 2.166812e-02
2.855000e+01 2.217655e-02
2.860000e+01 2.261428e-02
2.865000e+01 2.297892e-02
2.870000e+01 2.326850e-02
2.875000e+01 2.348144e-02
2.880000e+01 2.361659e-02
2.885000e+01 2.367322e-02
2.890000e+01 2.365103e-02
2.895000e+01 2.355017e-02
2.900000e+01 2.337121e-02
2.905000e+01 2.311516e-02
2.910000e+01 2.278348e-02
2.915000e+01 2.237800e-02
2.920000e+01 2.190096e-02
2.925000e+01 2.135502e-02
2.930000e+01 2.074314e-02
2.935000e+01 2.006865e-02
2.940000e+01 1.933517e-02
2.945000e+01 1.854664e-02
