-8.000000e+00 0.000000e+00
-7.950000e+00 0.000000e+00
-7.900000e+00 0.000000e+00
-7.850000e+00 0.000000e+00
-7.800000e+00 0.000000e+00
-7.750000e+00 0.000000e+00
-7.700000e+00 0.000000e+00
-7.650000e+00 0.000000e+00
-7.600000e+00 0.000000e+00
-7.550000e+00 0.000000e+00
-7.500000e+00 0.000000e+00
-7.450000e+00 0.000000e+00
-7.400000e+00 0.000000e+00
-7.350000e+00 0.000000e+00
-7.300000e+00 0.000000e+00
-7.250000e+00 0.000000e+00
-7.200000e+00 0.000000e+00
-7.150000e+00 0.000000e+00
-7.100000e+00 0.000000e+00
-7.050000e+00 0.000000e+00
-7.000000e+00 0.000000e+00
-6.950000e+00 0.000000e+00
-6.900000e+00 0.000000e+00
-6.850000e+00 0.000000e+00
-6.800000e+00 0.000000e+00
-6.750000e+00 0.000000e+00
-6.700000e+00 0.000000e+00
-6.650000e+00 0.000000e+00
-6.600000e+00 0.000000e+00
-6.550000e+00 0.000000e+00
-6.500000e+00 0.000000e+00
-6.450000e+00 0.000000e+00
-6.400000e+00 0.000000e+00
-6.350000e+00 0.000000e+00
-6.300000e+00 0.000000e+00
-6.250000e+00 0.000000e+00
-6.200000e+00 0.000000e+00
-6.150000e+00 0.000000e+00
-6.100000e+00 0.000000e+00
-6.050000e+00 0.000000e+00
-6.000000e+00 0.000000e+00
-5.950000e+00 0.000000e+00
-5.900000e+00 0.000000e+00
-5.850000e+00 0.000000e+00
-5.800000e+00 0.000000e+00
-5.750000e+00 0.000000e+00
-5.700000e+00 0.000000e+00
-5.650000e+00 0.000000e+00
-5.600000e+00 0.000000e+00
-5.550000e+00 0.000000e+00
-5.500000e+00 0.000000e+00
-5.450000e+00 0.000000e+00
-5.400000e+00 0.000000e+00
-5.350000e+00 0.000000e+00
-5.300000e+00 0.000000e+00
-5.250000e+00 0.000000e+00
-5.200000e+00 0.000000e+00
-5.150000e+00 0.000000e+00
-5.100000e+00 0.000000e+00
-5.050000e+00 0.000000e+00
-5.000000e+00 0.000000e+00
-4.950000e+00 0.000000e+00
-4.900000e+00 0.000000e+00
-4.850000e+00 0.000000e+00
-4.800000e+00 0.000000e+00
-4.750000e+00 0.000000e+00
-4.700000e+00 1.401298e-45
-4.650000e+00 4.203895e-45
-4.600000e+00 4.203895e-45
-4.550000e+00 -4.203895e-45
-4.500000e+00 -2.101948e-44
-4.450000e+00 -2.101948e-44
-4.400000e+00 3.363116e-44
-4.350000e+00 1.387285e-43
-4.300000e+00 1.737610e-43
-4.250000e+00 -1.163078e-43
-4.200000e+00 -8.940284e-43
-4.150000e+00 -1.479771e-42
-4.100000e+00 -2.508324e-43
-4.050000e+00 4.161856e-42
-4.000000e+00 9.143472e-42
-3.950000e+00 5.116141e-42
-3.900000e+00 -1.873396e-41
-3.850000e+00 -5.299991e-41
-3.800000e+00 -4.545672e-41
-3.750000e+00 7.481533e-41
-3.700000e+00 2.826531e-40
-3.650000e+00 3.167187e-40
-3.600000e+00 -2.367578e-40
-3.550000e+00 -1.379081e-39
-3.500000e+00 -1.912209e-39
-3.450000e+00 3.694972e-40
-3.400000e+00 6.109998e-39
-3.350000e+00 1.031426e-38
-3.300000e+00 2.148043e-39
-3.250000e+00 -2.430003e-38
-3.200000e+00 -5.038871e-38
-3.150000e+00 -2.692797e-38
-3.100000e+00 8.460408e-38
-3.050000e+00 2.240609e-37
-3.000000e+00 1.851117e-37
-2.950000e+00 -2.426600e-37
-2.900000e+00 -9.064098e-37
-2.850000e+00 -1.009318e-36
-2.800000e+00 4.628930e-37
-2.750000e+00 3.316674e-36
-2.700000e+00 4.739679e-36
-2.650000e+00 3.218053e-37
-2.600000e+00 -1.082511e-35
-2.550000e+00 -1.975863e-35
-2.500000e+00 -9.006495e-36
-2.450000e+00 3.053235e-35
-2.400000e+00 7.399739e-35
-2.350000e+00 5.808489e-35
-2.300000e+00 -6.837289e-35
-2.250000e+00 -2.493607e-34
-2.200000e+00 -2.754613e-34
-2.150000e+00 8.266923e-35
-2.100000e+00 7.500055e-34
-2.050000e+00 1.098887e-33
-2.000000e+00 2.393755e-34
-1.950000e+00 -1.965877e-33
-1.900000e+00 -3.843637e-33
-1.850000e+00 -2.314982e-33
-1.800000e+00 4.212814e-33
-1.750000e+00 1.194127e-32
-1.700000e+00 1.127545e-32
-1.650000e+00 -5.798356e-33
-1.600000e+00 -3.283735e-32
-1.550000e+00 -4.294324e-32
-1.500000e+00 -4.975024e-33
-1.450000e+00 7.811217e-32
-1.400000e+00 1.394116e-31
-1.350000e+00 7.557542e-32
-1.300000e+00 -1.501339e-31
-1.250000e+00 -3.954656e-31
-1.200000e+00 -3.582007e-31
-1.150000e+00 1.768320e-31
-1.100000e+00 9.782283e-31
-1.050000e+00 1.262521e-30
-1.000000e+00 2.051438e-31
-9.499998e-01 -2.046692e-30
-9.000001e-01 -3.715221e-30
-8.499999e-01 -2.223701e-30
-7.999997e-01 3.270219e-30
-7.500000e-01 9.385421e-30
-6.999998e-01 9.193257e-30
-6.500001e-01 -2.213244e-30
-5.999999e-01 -2.015999e-29
-5.499997e-01 -2.845186e-29
-5.000000e-01 -9.747712e-30
-4.499998e-01 3.475870e-29
-4.000001e-01 7.274436e-29
-3.499999e-01 5.538585e-29
-2.999997e-01 -3.803980e-29
-2.500000e-01 -1.559710e-28
-1.999998e-01 -1.822597e-28
-1.500001e-01 -2.317336e-29
-9.999990e-02 2.711790e-28
-4.999971e-02 4.656791e-28
0.000000e+00 2.794402e-28
5.000019e-02 -3.323073e-28
1.000004e-01 -9.763273e-28
1.500006e-01 -9.751694e-28
1.999998e-01 6.964500e-29
2.500000e-01 1.671731e-27
3.000002e-01 2.450631e-27
3.500004e-01 1.090721e-27
4.000006e-01 -2.199139e-27
4.499998e-01 -5.019004e-27
5.000000e-01 -4.096397e-27
5.500002e-01 1.682787e-27
6.000004e-01 8.828577e-27
6.500006e-01 1.038650e-26
6.999998e-01 1.510147e-27
7.500000e-01 -1.401277e-26
8.000002e-01 -2.283709e-26
8.500004e-01 -1.107006e-26
9.000006e-01 2.067294e-26
9.499998e-01 4.894188e-26
1.000000e+00 3.906635e-26
1.050000e+00 -2.353903e-26
1.100000e+00 -1.039542e-25
1.150001e+00 -1.231787e-25
1.200000e+00 -1.493807e-26
1.250000e+00 1.934332e-25
1.300000e+00 3.458380e-25
1.350000e+00 2.346316e-25
1.400001e+00 -2.163653e-25
1.450000e+00 -7.815852e-25
1.500000e+00 -9.571801e-25
1.550000e+00 -2.806884e-25
1.600000e+00 1.178380e-24
1.650001e+00 2.528093e-24
1.700000e+00 2.373210e-24
1.750000e+00 -1.758540e-25
1.800000e+00 -4.327844e-24
1.850000e+00 -7.268467e-24
1.900001e+00 -5.480812e-24
1.950000e+00 2.474316e-24
2.000000e+00 1.337015e-23
2.050000e+00 1.936018e-23
2.100000e+00 1.215332e-23
2.150001e+00 -9.993228e-24
2.200000e+00 -3.697473e-23
2.250000e+00 -4.874851e-23
2.300000e+00 -2.674353e-23
2.350000e+00 2.980794e-23
2.400001e+00 9.370243e-23
2.450000e+00 1.173220e-22
2.500000e+00 6.059001e-23
2.550000e+00 -7.331643e-23
2.600000e+00 -2.193210e-22
2.650001e+00 -2.714663e-22
2.700000e+00 -1.450923e-22
2.750000e+00 1.495667e-22
2.800000e+00 4.732336e-22
2.850000e+00 6.045441e-22
2.900001e+00 3.657888e-22
2.950000e+00 -2.332643e-22
3.000000e+00 -9.289708e-22
3.050000e+00 -1.288550e-21
3.100000e+00 -9.392744e-22
3.150001e+00 1.646412e-22
3.200000e+00 1.600608e-21
3.250000e+00 2.588856e-21
3.300000e+00 2.357094e-21
3.350000e+00 6.048858e-22
3.400001e+00 -2.178223e-21
3.450000e+00 -4.752500e-21
3.500000e+00 -5.582052e-21
3.550000e+00 -3.558977e-21
3.600000e+00 1.292423e-21
3.650001e+00 7.451363e-21
3.700000e+00 1.211468e-20
3.750000e+00 1.207864e-20
3.800000e+00 5.183032e-21
3.850000e+00 -8.048196e-21
3.900001e+00 -2.326570e-20
3.950000e+00 -3.261288e-20
4.000000e+00 -2.733578e-20
4.050000e+00 -2.641528e-21
4.100000e+00 3.687152e-20
4.150001e+00 7.456844e-20
4.200000e+00 8.561974e-20
4.250000e+00 4.873917e-20
4.300000e+00 -3.769913e-20
4.350000e+00 -1.440041e-19
4.400001e+00 -2.125889e-19
4.450000e+00 -1.819272e-19
4.500000e+00 -2.468791e-20
4.550000e+00 2.191854e-19
4.600000e+00 4.386166e-19
4.650001e+00 4.910820e-19
4.700000e+00 2.769285e-19
4.750000e+00 -1.856441e-19
4.800000e+00 -7.295201e-19
4.850000e+00 -1.081868e-18
4.900001e+00 -9.771061e-19
4.950000e+00 -2.977104e-19
5.000000e+00 8.186399e-19
5.050000e+00 1.960157e-18
5.100000e+00 2.539097e-18
5.150001e+00 2.004264e-18
5.200000e+00 1.303764e-19
5.250000e+00 -2.701744e-18
5.300000e+00 -5.382925e-18
5.350000e+00 -6.296807e-18
5.400001e+00 -3.997645e-18
5.450000e+00 1.784312e-18
5.500000e+00 9.293605e-18
5.550000e+00 1.477459e-17
5.600000e+00 1.389434e-17
5.650001e+00 4.327625e-18
5.700000e+00 -1.176629e-17
5.750000e+00 -2.723078e-17
5.800000e+00 -3.261322e-17
5.850000e+00 -2.143696e-17
5.900001e+00 4.801479e-18
5.950000e+00 3.554807e-17
6.000000e+00 5.580135e-17
6.050000e+00 5.427670e-17
6.100000e+00 2.969444e-17
6.150001e+00 -9.689074e-18
6.200000e+00 -5.294496e-17
6.250000e+00 -9.286514e-17
6.300000e+00 -1.235940e-16
6.350000e+00 -1.290011e-16
6.400001e+00 -7.468182e-17
6.450000e+00 7.664987e-17
6.500000e+00 3.190201e-16
6.550000e+00 5.508743e-16
6.600000e+00 5.718176e-16
6.650001e+00 1.790286e-16
6.700000e+00 -6.472732e-16
6.750000e+00 -1.576750e-15
6.800000e+00 -1.950084e-15
6.850000e+00 -1.103696e-15
6.900001e+00 1.082893e-15
6.950000e+00 3.745877e-15
7.000000e+00 5.140340e-15
7.050000e+00 3.520327e-15
7.100000e+00 -1.491134e-15
7.150001e+00 -7.889371e-15
7.200000e+00 -1.163080e-14
7.250000e+00 -8.735669e-15
7.300000e+00 1.658383e-15
7.350000e+00 1.523929e-14
7.400001e+00 2.350877e-14
7.450000e+00 1.837979e-14
7.500000e+00 -1.629356e-15
7.550000e+00 -2.769804e-14
7.600000e+00 -4.332119e-14
7.650001e+00 -3.369000e-14
7.700000e+00 2.752509e-15
7.750000e+00 4.855651e-14
7.800000e+00 7.374856e-14
7.850000e+00 5.390328e-14
7.900001e+00 -9.953644e-15
7.950000e+00 -8.411138e-14
8.000000e+00 -1.172590e-13
8.050001e+00 -7.359230e-14
8.100000e+00 3.560829e-14
8.150000e+00 1.465679e-13
8.200001e+00 1.760439e-13
8.250000e+00 7.920089e-14
8.300001e+00 -1.047158e-13
8.350000e+00 -2.579482e-13
8.400000e+00 -2.522610e-13
8.450001e+00 -4.549941e-14
8.500000e+00 2.598373e-13
8.550001e+00 4.531081e-13
8.600000e+00 3.473745e-13
8.650000e+00 -6.744111e-14
8.700001e+00 -5.629509e-13
8.750000e+00 -7.776017e-13
8.800001e+00 -4.568824e-13
8.850000e+00 3.177228e-13
8.900000e+00 1.091328e-12
8.950001e+00 1.274422e-12
9.000000e+00 5.538871e-13
9.050001e+00 -7.897128e-13
9.100000e+00 -1.927387e-12
9.150000e+00 -1.955502e-12
9.200001e+00 -5.550475e-13
9.250000e+00 1.613495e-12
9.300001e+00 3.148259e-12
9.350000e+00 2.762211e-12
9.400000e+00 2.708911e-13
9.450001e+00 -2.998025e-12
9.500000e+00 -4.824603e-12
9.550001e+00 -3.532791e-12
9.600000e+00 6.366538e-13
9.650000e+00 5.259607e-12
9.700001e+00 7.027271e-12
9.750000e+00 4.001425e-12
9.800001e+00 -2.640328e-12
9.850000e+00 -8.787306e-12
9.900000e+00 -9.799212e-12
9.950001e+00 -3.826374e-12
1.000000e+01 6.227665e-12
1.005000e+01 1.385153e-11
1.010000e+01 1.298146e-11
1.015000e+01 2.556088e-12
1.020000e+01 -1.171019e-11
1.025000e+01 -2.020962e-11
1.030000e+01 -1.575823e-11
1.035000e+01 6.759178e-13
1.040000e+01 1.920328e-11
1.045000e+01 2.671101e-11
1.050000e+01 1.599134e-11
1.055000e+01 -7.880551e-12
1.060000e+01 -2.919917e-11
1.065000e+01 -3.154826e-11
1.070000e+01 -1.004830e-11
1.075000e+01 2.287204e-11
1.080000e+01 4.374417e-11
1.085000e+01 3.388052e-11
1.090000e+01 -5.427794e-12
1.095000e+01 -4.995859e-11
1.100000e+01 -6.641443e-11
1.105000e+01 -3.582482e-11
1.110000e+01 2.932082e-11
1.115000e+01 8.825402e-11
1.120000e+01 9.680794e-11
1.125000e+01 3.937800e-11
1.130000e+01 -5.458498e-11
1.135000e+01 -1.245412e-10
1.140000e+01 -1.181629e-10
1.145000e+01 -3.103763e-11
1.150000e+01 8.275153e-11
1.155000e+01 1.419798e-10
1.160000e+01 9.519165e-11
1.165000e+01 -3.517664e-11
1.170000e+01 -1.568769e-10
1.175000e+01 -1.656437e-10
1.180000e+01 -2.304410e-11
1.185000e+01 2.001245e-10
1.190000e+01 3.533812e-10
1.195000e+01 3.004064e-10
1.200000e+01 1.999925e-11
1.205000e+01 -3.575011e-10
1.210000e+01 -6.144654e-10
1.215000e+01 -5.799134e-10
1.220000e+01 -2.478141e-10
1.225000e+01 2.056902e-10
1.230000e+01 5.297103e-10
1.235000e+01 5.670717e-10
1.240000e+01 3.679825e-10
1.245000e+01 1.588786e-10
1.250000e+01 1.719241e-10
1.255000e+01 4.452449e-10
1.260000e+01 7.420201e-10
1.265000e+01 6.708759e-10
1.270000e+01 -4.575760e-11
1.275000e+01 -1.325198e-09
1.280000e+01 -2.679946e-09
1.285000e+01 -3.437399e-09
1.290000e+01 -3.109310e-09
1.295000e+01 -1.679704e-09
1.300000e+01 3.863612e-10
1.305000e+01 2.434246e-09
1.310000e+01 4.024052e-09
1.315000e+01 5.166030e-09
1.320000e+01 6.204192e-09
1.325000e+01 7.405566e-09
1.330000e+01 8.535594e-09
1.335000e+01 8.743201e-09
1.340000e+01 6.892649e-09
1.345000e+01 2.173930e-09
1.350000e+01 -5.394150e-09
1.355000e+01 -1.492091e-08
1.360000e+01 -2.513056e-08
1.365000e+01 -3.509511e-08
1.370000e+01 -4.474921e-08
1.375000e+01 -5.485447e-08
1.380000e+01 -6.645049e-08
1.385000e+01 -8.018845e-08
1.390000e+01 -9.603472e-08
1.395000e+01 -1.135725e-07
1.400000e+01 -1.326911e-07
1.405000e+01 -1.541440e-07
1.410000e+01 -1.795179e-07
1.415000e+01 -2.105649e-07
1.420000e+01 -2.483378e-07
1.425000e+01 -2.927667e-07
1.430000e+01 -3.430596e-07
1.435000e+01 -3.987375e-07
1.440000e+01 -4.606265e-07
1.445000e+01 -5.310956e-07
1.450000e+01 -6.133058e-07
1.455000e+01 -7.099417e-07
1.460000e+01 -8.223153e-07
1.465000e+01 -9.505429e-07
1.470000e+01 -1.094782e-06
1.475000e+01 -1.256738e-06
1.480000e+01 -1.440391e-06
1.485000e+01 -1.651342e-06
1.490000e+01 -1.895122e-06
1.495000e+01 -2.175595e-06
1.500000e+01 -2.494578e-06
1.505000e+01 -2.853098e-06
1.510000e+01 -3.253526e-06
1.515000e+01 -3.701255e-06
1.520000e+01 -4.204740e-06
1.525000e+01 -4.773892e-06
1.530000e+01 -5.417852e-06
1.535000e+01 -6.143763e-06
1.540000e+01 -6.957398e-06
1.545000e+01 -7.865328e-06
1.550000e+01 -8.877128e-06
1.555000e+01 -1.000604e-05
1.560000e+01 -1.126757e-05
1.565000e+01 -1.267691e-05
1.570000e+01 -1.424694e-05
1.575000e+01 -1.598852e-05
1.580000e+01 -1.791301e-05
1.585000e+01 -2.003552e-05
1.590000e+01 -2.237684e-05
1.595000e+01 -2.496265e-05
1.600000e+01 -2.782018e-05
1.605000e+01 -3.097450e-05
1.610000e+01 -3.444672e-05
1.615000e+01 -3.825513e-05
1.620000e+01 -4.241896e-05
1.625000e+01 -4.696211e-05
1.630000e+01 -5.191506e-05
1.635000e+01 -5.731363e-05
1.640000e+01 -6.319559e-05
1.645000e+01 -6.959734e-05
1.650000e+01 -7.655208e-05
1.655000e+01 -8.409076e-05
1.660000e+01 -9.224432e-05
1.665000e+01 -1.010456e-04
1.670000e+01 -1.105303e-04
1.675000e+01 -1.207356e-04
1.680000e+01 -1.316995e-04
1.685000e+01 -1.434597e-04
1.690000e+01 -1.560532e-04
1.695000e+01 -1.695168e-04
1.700000e+01 -1.838867e-04
1.705000e+01 -1.991973e-04
1.710000e+01 -2.154791e-04
1.715000e+01 -2.327579e-04
1.720000e+01 -2.510557e-04
1.725000e+01 -2.703919e-04
1.730000e+01 -2.907856e-04
1.735000e+01 -3.122552e-04
1.740000e+01 -3.348161e-04
1.745000e+01 -3.584794e-04
1.750000e+01 -3.832465e-04
1.755000e+01 -4.091095e-04
1.760000e+01 -4.360513e-04
1.765000e+01 -4.640481e-04
1.770000e+01 -4.930703e-04
1.775000e+01 -5.230824e-04
1.780000e+01 -5.540411e-04
1.785000e+01 -5.858929e-04
1.790000e+01 -6.185719e-04
1.795000e+01 -6.520023e-04
1.800000e+01 -6.860984e-04
1.805000e+01 -7.207665e-04
1.810000e+01 -7.559027e-04
1.815000e+01 -7.913904e-04
1.820000e+01 -8.270998e-04
1.825000e+01 -8.628834e-04
1.830000e+01 -8.985811e-04
1.835000e+01 -9.340214e-04
1.840000e+01 -9.690271e-04
1.845000e+01 -1.003417e-03
1.850000e+01 -1.037002e-03
1.855000e+01 -1.069587e-03
1.860000e+01 -1.100962e-03
1.865000e+01 -1.130901e-03
1.870000e+01 -1.159166e-03
1.875000e+01 -1.185512e-03
1.880000e+01 -1.209691e-03
1.885000e+01 -1.231456e-03
1.890000e+01 -1.250567e-03
1.895000e+01 -1.266784e-03
1.900000e+01 -1.279871e-03
1.905000e+01 -1.289591e-03
1.910000e+01 -1.295706e-03
1.915000e+01 -1.297982e-03
1.920000e+01 -1.296188e-03
1.925000e+01 -1.290108e-03
1.930000e+01 -1.279541e-03
1.935000e+01 -1.264304e-03
1.940000e+01 -1.244233e-03
1.945000e+01 -1.219186e-03
1.950000e+01 -1.189039e-03
1.955000e+01 -1.153687e-03
1.960000e+01 -1.113048e-03
1.965000e+01 -1.067062e-03
1.970000e+01 -1.015697e-03
1.975000e+01 -9.589527e-04
1.980000e+01 -8.968601e-04
1.985000e+01 -8.294843e-04
1.990000e+01 -7.569233e-04
1.995000e+01 -6.793068e-04
2.000000e+01 -5.967962e-04
2.005000e+01 -5.095837e-04
2.010000e+01 -4.178931e-04
2.015000e+01 -3.219821e-04
2.020000e+01 -2.221405e-04
2.025000e+01 -1.186913e-04
2.030000e+01 -1.198796e-05
2.035000e+01 9.758714e-05
2.040000e+01 2.096248e-04
2.045000e+01 3.236917e-04
2.050000e+01 4.393319e-04
2.055000e+01 5.560697e-04
2.060000e+01 6.734118e-04
2.065000e+01 7.908510e-04
2.070000e+01 9.078686e-04
2.075000e+01 1.023938e-03
2.080000e+01 1.138530e-03
2.085000e+01 1.251110e-03
2.090000e+01 1.361150e-03
2.095000e+01 1.468122e-03
2.100000e+01 1.571508e-03
2.105000e+01 1.670806e-03
2.110000e+01 1.765524e-03
2.115000e+01 1.855197e-03
2.120000e+01 1.939381e-03
2.125000e+01 2.017663e-03
2.130000e+01 2.089658e-03
2.135000e+01 2.155009e-03
2.140000e+01 2.213402e-03
2.145000e+01 2.264549e-03
2.150000e+01 2.308203e-03
2.155000e+01 2.344162e-03
2.160000e+01 2.372262e-03
2.165000e+01 2.392389e-03
2.170000e+01 2.404468e-03
2.175000e+01 2.408475e-03
2.180000e+01 2.404427e-03
2.185000e+01 2.392385e-03
2.190000e+01 2.372453e-03
2.195000e+01 2.344780e-03
2.200000e+01 2.309556e-03
2.205000e+01 2.267011e-03
2.210000e+01 2.217413e-03
2.215000e+01 2.161072e-03
2.220000e+01 2.098324e-03
2.225000e+01 2.029537e-03
2.230000e+01 1.955104e-03
2.235000e+01 1.875445e-03
2.240000e+01 1.791002e-03
2.245000e+01 1.702240e-03
2.250000e+01 1.609638e-03
2.255000e+01 1.513692e-03
2.260000e+01 1.414903e-03
2.265000e+01 1.313774e-03
2.270000e+01 1.210807e-03
2.275000e+01 1.106500e-03
2.280000e+01 1.001344e-03
2.285000e+01 8.958262e-04
2.290000e+01 7.904258e-04
2.295000e+01 6.856084e-04
2.300000e+01 5.818251e-04
2.305000e+01 4.795050e-04
2.310000e+01 3.790540e-04
2.315000e+01 2.808522e-04
2.320000e+01 1.852533e-04
2.325000e+01 9.258616e-05
2.330000e+01 3.153195e-06
2.335000e+01 -8.277092e-05
2.340000e+01 -1.649410e-04
2.345000e+01 -2.431430e-04
2.350000e+01 -3.171952e-04
2.355000e+01 -3.869463e-04
2.360000e+01 -4.522748e-04
2.365000e+01 -5.130871e-04
2.370000e+01 -5.693174e-04
2.375000e+01 -6.209275e-04
2.380000e+01 -6.679061e-04
2.385000e+01 -7.102704e-04
2.390000e+01 -7.480612e-04
2.395000e+01 -7.813446e-04
2.400000e+01 -8.102062e-04
2.405000e+01 -8.347509e-04
2.410000e+01 -8.551024e-04
2.415000e+01 -8.713998e-04
2.420000e+01 -8.837989e-04
2.425000e+01 -8.924671e-04
2.430000e+01 -8.975816e-04
2.435000e+01 -8.993286e-04
2.440000e+01 -8.979003e-04
2.445000e+01 -8.934950e-04
2.450000e+01 -8.863155e-04
2.455000e+01 -8.765685e-04
2.460000e+01 -8.644630e-04
2.465000e+01 -8.502071e-04
2.470000e+01 -8.340075e-04
2.475000e+01 -8.160679e-04
2.480000e+01 -7.965858e-04
2.485000e+01 -7.757539e-04
2.490000e+01 -7.537580e-04
2.495000e+01 -7.307772e-04
2.500000e+01 -7.069841e-04
2.505000e+01 -6.825426e-04
2.510000e+01 -6.576097e-04
2.515000e+01 -6.323323e-04
2.520000e+01 -6.068487e-04
2.525000e+01 -5.812871e-04
2.530000e+01 -5.557659e-04
2.535000e+01 -5.303944e-04
2.540000e+01 -5.052733e-04
2.545000e+01 -4.804942e-04
2.550000e+01 -4.561400e-04
2.555000e+01 -4.322829e-04
2.560000e+01 -4.089871e-04
2.565000e+01 -3.863059e-04
2.570000e+01 -3.642844e-04
2.575000e+01 -3.429605e-04
2.580000e+01 -3.223651e-04
2.585000e+01 -3.025241e-04
2.590000e+01 -2.834584e-04
2.595000e+01 -2.651836e-04
2.600000e+01 -2.477090e-04
2.605000e+01 -2.310379e-04
2.610000e+01 -2.151671e-04
2.615000e+01 -2.000890e-04
2.620000e+01 -1.857921e-04
2.625000e+01 -1.722625e-04
2.630000e+01 -1.594846e-04
2.635000e+01 -1.474409e-04
2.640000e+01 -1.361117e-04
2.645000e+01 -1.254753e-04
2.650000e+01 -1.155072e-04
2.655000e+01 -1.061817e-04
2.660000e+01 -9.747177e-05
2.665000e+01 -8.935061e-05
2.670000e+01 -8.179153e-05
2.675000e+01 -7.476831e-05
2.680000e+01 -6.825505e-05
2.685000e+01 -6.222562e-05
2.690000e+01 -5.665360e-05
2.695000e+01 -5.151232e-05
2.700000e+01 -4.677540e-05
2.705000e+01 -4.241748e-05
2.710000e+01 -3.841450e-05
2.715000e+01 -3.474359e-05
2.720000e+01 -3.138267e-05
2.725000e+01 -2.831004e-05
2.730000e+01 -2.550429e-05
2.735000e+01 -2.294494e-05
2.740000e+01 -2.061326e-05
2.745000e+01 -1.849266e-05
2.750000e+01 -1.656851e-05
2.755000e+01 -1.482715e-05
2.760000e+01 -1.325492e-05
2.765000e+01 -1.183757e-05
2.770000e+01 -1.056059e-05
2.775000e+01 -9.410054e-06
2.780000e+01 -8.373419e-06
2.785000e+01 -7.439853e-06
2.790000e+01 -6.599998e-06
2.795000e+01 -5.845447e-06
2.800000e+01 -5.168534e-06
2.805000e+01 -4.562406e-06
2.810000e+01 -4.021220e-06
2.815000e+01 -3.540045e-06
2.820000e+01 -3.114364e-06
2.825000e+01 -2.739411e-06
2.830000e+01 -2.409785e-06
2.835000e+01 -2.119604e-06
2.840000e+01 -1.863065e-06
2.845000e+01 -1.635066e-06
2.850000e+01 -1.431506e-06
2.855000e+01 -1.249292e-06
2.860000e+01 -1.086187e-06
2.865000e+01 -9.407290e-07
2.870000e+01 -8.121359e-07
2.875000e+01 -7.000365e-07
2.880000e+01 -6.039393e-07
2.885000e+01 -5.226448e-07
2.890000e+01 -4.540015e-07
2.895000e+01 -3.952475e-07
2.900000e+01 -3.437801e-07
2.905000e+01 -2.978701e-07
2.910000e+01 -2.568547e-07
2.915000e+01 -2.207326e-07
2.920000e+01 -1.895026e-07
2.925000e+01 -1.627239e-07
2.930000e+01 -1.395303e-07
2.935000e+01 -1.189679e-07
2.940000e+01 -1.003426e-07
2.945000e+01 -8.337247e-08
