-8.000000e+00 0.000000e+00
-7.990000e+00 0.000000e+00
-7.980000e+00 0.000000e+00
-7.970000e+00 0.000000e+00
-7.960000e+00 0.000000e+00
-7.950000e+00 0.000000e+00
-7.940000e+00 0.000000e+00
-7.930000e+00 0.000000e+00
-7.920000e+00 0.000000e+00
-7.910000e+00 0.000000e+00
-7.900000e+00 0.000000e+00
-7.890000e+00 0.000000e+00
-7.880000e+00 0.000000e+00
-7.870000e+00 0.000000e+00
-7.860000e+00 0.000000e+00
-7.850000e+00 0.000000e+00
-7.840000e+00 0.000000e+00
-7.830000e+00 0.000000e+00
-7.820000e+00 0.000000e+00
-7.810000e+00 0.000000e+00
-7.800000e+00 0.000000e+00
-7.790000e+00 0.000000e+00
-7.780000e+00 0.000000e+00
-7.770000e+00 0.000000e+00
-7.760000e+00 0.000000e+00
-7.750000e+00 0.000000e+00
-7.740000e+00 0.000000e+00
-7.730000e+00 0.000000e+00
-7.720000e+00 0.000000e+00
-7.710000e+00 0.000000e+00
-7.700000e+00 0.000000e+00
-7.690000e+00 0.000000e+00
-7.680000e+00 0.000000e+00
-7.670000e+00 0.000000e+00
-7.660000e+00 0.000000e+00
-7.650000e+00 0.000000e+00
-7.640000e+00 0.000000e+00
-7.630000e+00 0.000000e+00
-7.620000e+00 0.000000e+00
-7.610000e+00 0.000000e+00
-7.600000e+00 0.000000e+00
-7.590000e+00 0.000000e+00
-7.580000e+00 0.000000e+00
-7.570000e+00 0.000000e+00
-7.560000e+00 0.000000e+00
-7.550000e+00 0.000000e+00
-7.540000e+00 0.000000e+00
-7.530000e+00 0.000000e+00
-7.520000e+00 0.000000e+00
-7.510000e+00 0.000000e+00
-7.500000e+00 0.000000e+00
-7.490000e+00 0.000000e+00
-7.480000e+00 0.000000e+00
-7.470000e+00 0.000000e+00
-7.460000e+00 0.000000e+00
-7.450000e+00 0.000000e+00
-7.440000e+00 0.000000e+00
-7.430000e+00 0.000000e+00
-7.420000e+00 0.000000e+00
-7.410000e+00 0.000000e+00
-7.400000e+00 0.000000e+00
-7.390000e+00 0.000000e+00
-7.380000e+00 0.000000e+00
-7.370000e+00 0.000000e+00
-7.360000e+00 0.000000e+00
-7.350000e+00 0.000000e+00
-7.340000e+00 0.000000e+00
-7.330000e+00 0.000000e+00
-7.320000e+00 0.000000e+00
-7.310000e+00 0.000000e+00
-7.300000e+00 0.000000e+00
-7.290000e+00 0.000000e+00
-7.280000e+00 0.000000e+00
-7.270000e+00 0.000000e+00
-7.260000e+00 0.000000e+00
-7.250000e+00 0.000000e+00
-7.240000e+00 0.000000e+00
-7.230000e+00 0.000000e+00
-7.220000e+00 0.000000e+00
-7.210000e+00 0.000000e+00
-7.200000e+00 0.000000e+00
-7.190000e+00 0.000000e+00
-7.180000e+00 0.000000e+00
-7.170000e+00 0.000000e+00
-7.160000e+00 0.000000e+00
-7.150000e+00 0.000000e+00
-7.140000e+00 0.000000e+00
-7.130000e+00 0.000000e+00
-7.120000e+00 0.000000e+00
-7.110000e+00 0.000000e+00
-7.100000e+00 0.000000e+00
-7.090000e+00 0.000000e+00
-7.080000e+00 0.000000e+00
-7.070000e+00 0.000000e+00
-7.060000e+00 0.000000e+00
-7.050000e+00 0.000000e+00
-7.040000e+00 0.000000e+00
-7.030000e+00 0.000000e+00
-7.020000e+00 0.000000e+00
-7.010000e+00 0.000000e+00
-7.000000e+00 0.000000e+00
-6.990000e+00 0.000000e+00
-6.980000e+00 0.000000e+00
-6.970000e+00 0.000000e+00
-6.960000e+00 0.000000e+00
-6.950000e+00 0.000000e+00
-6.940000e+00 0.000000e+00
-6.930000e+00 0.000000e+00
-6.920000e+00 0.000000e+00
-6.910000e+00 0.000000e+00
-6.900000e+00 0.000000e+00
-6.890000e+00 0.000000e+00
-6.880000e+00 0.000000e+00
-6.870000e+00 0.000000e+00
-6.860000e+00 0.000000e+00
-6.850000e+00 0.000000e+00
-6.840000e+00 0.000000e+00
-6.830000e+00 0.000000e+00
-6.820000e+00 0.000000e+00
-6.810000e+00 0.000000e+00
-6.800000e+00 0.000000e+00
-6.790000e+00 0.000000e+00
-6.780000e+00 0.000000e+00
-6.770000e+00 0.000000e+00
-6.760000e+00 0.000000e+00
-6.750000e+00 0.000000e+00
-6.740000e+00 0.000000e+00
-6.730000e+00 0.000000e+00
-6.720000e+00 0.000000e+00
-6.710000e+00 0.000000e+00
-6.700000e+00 0.000000e+00
-6.690000e+00 0.000000e+00
-6.680000e+00 0.000000e+00
-6.670000e+00 0.000000e+00
-6.660000e+00 0.000000e+00
-6.650000e+00 0.000000e+00
-6.640000e+00 0.000000e+00
-6.630000e+00 0.000000e+00
-6.620000e+00 0.000000e+00
-6.610000e+00 0.000000e+00
-6.600000e+00 0.000000e+00
-6.590000e+00 0.000000e+00
-6.580000e+00 0.000000e+00
-6.570000e+00 0.000000e+00
-6.560000e+00 0.000000e+00
-6.550000e+00 0.000000e+00
-6.540000e+00 0.000000e+00
-6.530000e+00 0.000000e+00
-6.520000e+00 0.000000e+00
-6.510000e+00 0.000000e+00
-6.500000e+00 0.000000e+00
-6.490000e+00 0.000000e+00
-6.480000e+00 0.000000e+00
-6.470000e+00 0.000000e+00
-6.460000e+00 0.000000e+00
-6.450000e+00 0.000000e+00
-6.440000e+00 0.000000e+00
-6.430000e+00 0.000000e+00
-6.420000e+00 0.000000e+00
-6.410000e+00 0.000000e+00
-6.400000e+00 0.000000e+00
-6.390000e+00 0.000000e+00
-6.380000e+00 0.000000e+00
-6.370000e+00 0.000000e+00
-6.360000e+00 0.000000e+00
-6.350000e+00 0.000000e+00
-6.340000e+00 0.000000e+00
-6.330000e+00 0.000000e+00
-6.320000e+00 0.000000e+00
-6.310000e+00 0.000000e+00
-6.300000e+00 0.000000e+00
-6.290000e+00 0.000000e+00
-6.280000e+00 0.000000e+00
-6.270000e+00 0.000000e+00
-6.260000e+00 0.000000e+00
-6.250000e+00 0.000000e+00
-6.240000e+00 0.000000e+00
-6.230000e+00 0.000000e+00
-6.220000e+00 0.000000e+00
-6.210000e+00 0.000000e+00
-6.200000e+00 0.000000e+00
-6.190000e+00 0.000000e+00
-6.180000e+00 0.000000e+00
-6.170000e+00 0.000000e+00
-6.160000e+00 0.000000e+00
-6.150000e+00 0.000000e+00
-6.140000e+00 0.000000e+00
-6.130000e+00 0.000000e+00
-6.120000e+00 0.000000e+00
-6.110000e+00 0.000000e+00
-6.100000e+00 0.000000e+00
-6.090000e+00 0.000000e+00
-6.080000e+00 0.000000e+00
-6.070000e+00 0.000000e+00
-6.060000e+00 0.000000e+00
-6.050000e+00 0.000000e+00
-6.040000e+00 0.000000e+00
-6.030000e+00 0.000000e+00
-6.020000e+00 0.000000e+00
-6.010000e+00 0.000000e+00
-6.000000e+00 0.000000e+00
-5.990000e+00 0.000000e+00
-5.980000e+00 0.000000e+00
-5.970000e+00 0.000000e+00
-5.960000e+00 0.000000e+00
-5.950000e+00 0.000000e+00
-5.940000e+00 0.000000e+00
-5.930000e+00 0.000000e+00
-5.920000e+00 0.000000e+00
-5.910000e+00 0.000000e+00
-5.900000e+00 0.000000e+00
-5.890000e+00 0.000000e+00
-5.880000e+00 0.000000e+00
-5.870000e+00 0.000000e+00
-5.860000e+00 0.000000e+00
-5.850000e+00 0.000000e+00
-5.840000e+00 0.000000e+00
-5.830000e+00 0.000000e+00
-5.820000e+00 0.000000e+00
-5.810000e+00 0.000000e+00
-5.800000e+00 0.000000e+00
-5.790000e+00 0.000000e+00
-5.780000e+00 0.000000e+00
-5.770000e+00 0.000000e+00
-5.760000e+00 0.000000e+00
-5.750000e+00 0.000000e+00
-5.740000e+00 0.000000e+00
-5.730000e+00 0.000000e+00
-5.720000e+00 0.000000e+00
-5.710000e+00 0.000000e+00
-5.700000e+00 0.000000e+00
-5.690000e+00 0.000000e+00
-5.680000e+00 0.000000e+00
-5.670000e+00 0.000000e+00
-5.660000e+00 0.000000e+00
-5.650000e+00 0.000000e+00
-5.640000e+00 0.000000e+00
-5.630000e+00 0.000000e+00
-5.620000e+00 0.000000e+00
-5.610000e+00 0.000000e+00
-5.600000e+00 0.000000e+00
-5.590000e+00 0.000000e+00
-5.580000e+00 0.000000e+00
-5.570000e+00 0.000000e+00
-5.560000e+00 0.000000e+00
-5.550000e+00 0.000000e+00
-5.540000e+00 0.000000e+00
-5.530000e+00 0.000000e+00
-5.520000e+00 0.000000e+00
-5.510000e+00 0.000000e+00
-5.500000e+00 0.000000e+00
-5.490000e+00 0.000000e+00
-5.480000e+00 0.000000e+00
-5.470000e+00 0.000000e+00
-5.460000e+00 0.000000e+00
-5.450000e+00 0.000000e+00
-5.440000e+00 0.000000e+00
-5.430000e+00 0.000000e+00
-5.420000e+00 0.000000e+00
-5.410000e+00 0.000000e+00
-5.400000e+00 0.000000e+00
-5.390000e+00 0.000000e+00
-5.380000e+00 0.000000e+00
-5.370000e+00 0.000000e+00
-5.360000e+00 0.000000e+00
-5.350000e+00 0.000000e+00
-5.340000e+00 0.000000e+00
-5.330000e+00 0.000000e+00
-5.320000e+00 0.000000e+00
-5.310000e+00 0.000000e+00
-5.300000e+00 0.000000e+00
-5.290000e+00 0.000000e+00
-5.280000e+00 0.000000e+00
-5.270000e+00 0.000000e+00
-5.260000e+00 0.000000e+00
-5.250000e+00 0.000000e+00
-5.240000e+00 0.000000e+00
-5.230000e+00 0.000000e+00
-5.220000e+00 0.000000e+00
-5.210000e+00 0.000000e+00
-5.200000e+00 0.000000e+00
-5.190000e+00 0.000000e+00
-5.180000e+00 0.000000e+00
-5.170000e+00 0.000000e+00
-5.160000e+00 0.000000e+00
-5.150000e+00 0.000000e+00
-5.140000e+00 0.000000e+00
-5.130000e+00 0.000000e+00
-5.120000e+00 0.000000e+00
-5.110000e+00 0.000000e+00
-5.100000e+00 0.000000e+00
-5.090000e+00 0.000000e+00
-5.080000e+00 0.000000e+00
-5.070000e+00 0.000000e+00
-5.060000e+00 0.000000e+00
-5.050000e+00 0.000000e+00
-5.040000e+00 0.000000e+00
-5.030000e+00 0.000000e+00
-5.020000e+00 0.000000e+00
-5.010000e+00 0.000000e+00
-5.000000e+00 0.000000e+00
-4.990000e+00 0.000000e+00
-4.980000e+00 0.000000e+00
-4.970000e+00 0.000000e+00
-4.960000e+00 0.000000e+00
-4.950000e+00 0.000000e+00
-4.940000e+00 0.000000e+00
-4.930000e+00 0.000000e+00
-4.920000e+00 0.000000e+00
-4.910000e+00 0.000000e+00
-4.900000e+00 0.000000e+00
-4.890000e+00 0.000000e+00
-4.880000e+00 0.000000e+00
-4.870000e+00 0.000000e+00
-4.860000e+00 0.000000e+00
-4.850000e+00 0.000000e+00
-4.840000e+00 0.000000e+00
-4.830000e+00 0.000000e+00
-4.820000e+00 0.000000e+00
-4.810000e+00 0.000000e+00
-4.800000e+00 0.000000e+00
-4.790000e+00 0.000000e+00
-4.780000e+00 0.000000e+00
-4.770000e+00 0.000000e+00
-4.760000e+00 0.000000e+00
-4.750000e+00 0.000000e+00
-4.740000e+00 0.000000e+00
-4.730000e+00 0.000000e+00
-4.720000e+00 0.000000e+00
-4.710000e+00 0.000000e+00
-4.700000e+00 0.000000e+00
-4.690000e+00 0.000000e+00
-4.680000e+00 0.000000e+00
-4.670000e+00 0.000000e+00
-4.660000e+00 0.000000e+00
-4.650000e+00 0.000000e+00
-4.640000e+00 0.000000e+00
-4.630000e+00 0.000000e+00
-4.620000e+00 0.000000e+00
-4.610000e+00 0.000000e+00
-4.600000e+00 0.000000e+00
-4.590000e+00 0.000000e+00
-4.580000e+00 0.000000e+00
-4.570000e+00 0.000000e+00
-4.560000e+00 0.000000e+00
-4.550000e+00 0.000000e+00
-4.540000e+00 0.000000e+00
-4.530000e+00 0.000000e+00
-4.520000e+00 0.000000e+00
-4.510000e+00 0.000000e+00
-4.500000e+00 0.000000e+00
-4.490000e+00 0.000000e+00
-4.480000e+00 0.000000e+00
-4.470000e+00 0.000000e+00
-4.460000e+00 0.000000e+00
-4.450000e+00 0.000000e+00
-4.440000e+00 0.000000e+00
-4.430000e+00 0.000000e+00
-4.420000e+00 0.000000e+00
-4.410000e+00 0.000000e+00
-4.400000e+00 0.000000e+00
-4.390000e+00 0.000000e+00
-4.380000e+00 0.000000e+00
-4.370000e+00 0.000000e+00
-4.360000e+00 0.000000e+00
-4.350000e+00 0.000000e+00
-4.340000e+00 0.000000e+00
-4.330000e+00 0.000000e+00
-4.320000e+00 0.000000e+00
-4.310000e+00 0.000000e+00
-4.300000e+00 0.000000e+00
-4.290000e+00 0.000000e+00
-4.280000e+00 0.000000e+00
-4.270000e+00 0.000000e+00
-4.260000e+00 0.000000e+00
-4.250000e+00 0.000000e+00
-4.240000e+00 0.000000e+00
-4.230000e+00 0.000000e+00
-4.220000e+00 0.000000e+00
-4.210000e+00 0.000000e+00
-4.200000e+00 0.000000e+00
-4.190000e+00 0.000000e+00
-4.180000e+00 0.000000e+00
-4.170000e+00 0.000000e+00
-4.160000e+00 0.000000e+00
-4.150000e+00 0.000000e+00
-4.140000e+00 0.000000e+00
-4.130000e+00 0.000000e+00
-4.120000e+00 0.000000e+00
-4.110000e+00 0.000000e+00
-4.100000e+00 0.000000e+00
-4.090000e+00 0.000000e+00
-4.080000e+00 0.000000e+00
-4.070000e+00 0.000000e+00
-4.060000e+00 0.000000e+00
-4.050000e+00 0.000000e+00
-4.040000e+00 0.000000e+00
-4.030000e+00 0.000000e+00
-4.020000e+00 0.000000e+00
-4.010000e+00 0.000000e+00
-4.000000e+00 0.000000e+00
-3.990000e+00 0.000000e+00
-3.980000e+00 0.000000e+00
-3.970000e+00 0.000000e+00
-3.960000e+00 0.000000e+00
-3.950000e+00 0.000000e+00
-3.940000e+00 0.000000e+00
-3.930000e+00 0.000000e+00
-3.920000e+00 0.000000e+00
-3.910000e+00 0.000000e+00
-3.900000e+00 0.000000e+00
-3.890000e+00 0.000000e+00
-3.880000e+00 0.000000e+00
-3.870000e+00 0.000000e+00
-3.860000e+00 0.000000e+00
-3.850000e+00 0.000000e+00
-3.840000e+00 0.000000e+00
-3.830000e+00 0.000000e+00
-3.820000e+00 0.000000e+00
-3.810000e+00 0.000000e+00
-3.800000e+00 0.000000e+00
-3.790000e+00 0.000000e+00
-3.780000e+00 0.000000e+00
-3.770000e+00 0.000000e+00
-3.760000e+00 0.000000e+00
-3.750000e+00 0.000000e+00
-3.740000e+00 0.000000e+00
-3.730000e+00 0.000000e+00
-3.720000e+00 0.000000e+00
-3.710000e+00 0.000000e+00
-3.700000e+00 0.000000e+00
-3.690000e+00 0.000000e+00
-3.680000e+00 0.000000e+00
-3.670000e+00 0.000000e+00
-3.660000e+00 0.000000e+00
-3.650000e+00 0.000000e+00
-3.640000e+00 0.000000e+00
-3.630000e+00 0.000000e+00
-3.620000e+00 0.000000e+00
-3.610000e+00 0.000000e+00
-3.600000e+00 0.000000e+00
-3.590000e+00 0.000000e+00
-3.580000e+00 0.000000e+00
-3.570000e+00 0.000000e+00
-3.560000e+00 0.000000e+00
-3.550000e+00 0.000000e+00
-3.540000e+00 0.000000e+00
-3.530000e+00 0.000000e+00
-3.520000e+00 0.000000e+00
-3.510000e+00 0.000000e+00
-3.500000e+00 0.000000e+00
-3.490000e+00 0.000000e+00
-3.480000e+00 0.000000e+00
-3.470000e+00 0.000000e+00
-3.460000e+00 0.000000e+00
-3.450000e+00 0.000000e+00
-3.440000e+00 0.000000e+00
-3.430000e+00 0.000000e+00
-3.420000e+00 0.000000e+00
-3.410000e+00 0.000000e+00
-3.400000e+00 0.000000e+00
-3.390000e+00 0.000000e+00
-3.380000e+00 0.000000e+00
-3.370000e+00 0.000000e+00
-3.360000e+00 0.000000e+00
-3.350000e+00 0.000000e+00
-3.340000e+00 0.000000e+00
-3.330000e+00 0.000000e+00
-3.320000e+00 0.000000e+00
-3.310000e+00 0.000000e+00
-3.300000e+00 0.000000e+00
-3.290000e+00 0.000000e+00
-3.280000e+00 0.000000e+00
-3.270000e+00 0.000000e+00
-3.260000e+00 0.000000e+00
-3.250000e+00 0.000000e+00
-3.240000e+00 0.000000e+00
-3.230000e+00 0.000000e+00
-3.220000e+00 0.000000e+00
-3.210000e+00 0.000000e+00
-3.200000e+00 0.000000e+00
-3.190000e+00 0.000000e+00
-3.180000e+00 0.000000e+00
-3.170000e+00 0.000000e+00
-3.160000e+00 0.000000e+00
-3.150000e+00 0.000000e+00
-3.140000e+00 0.000000e+00
-3.130000e+00 0.000000e+00
-3.120000e+00 0.000000e+00
-3.110000e+00 0.000000e+00
-3.100000e+00 0.000000e+00
-3.090000e+00 0.000000e+00
-3.080000e+00 0.000000e+00
-3.070000e+00 0.000000e+00
-3.060000e+00 0.000000e+00
-3.050000e+00 0.000000e+00
-3.040000e+00 0.000000e+00
-3.030000e+00 0.000000e+00
-3.020000e+00 0.000000e+00
-3.010000e+00 0.000000e+00
-3.000000e+00 1.401298e-45
-2.990000e+00 1.401298e-45
-2.980000e+00 1.401298e-45
-2.970000e+00 1.401298e-45
-2.960000e+00 1.401298e-45
-2.950000e+00 2.802597e-45
-2.940000e+00 2.802597e-45
-2.930000e+00 2.802597e-45
-2.920000e+00 2.802597e-45
-2.910000e+00 2.802597e-45
-2.900000e+00 2.802597e-45
-2.890000e+00 1.401298e-45
-2.880000e+00 1.401298e-45
-2.870000e+00 -2.802597e-45
-2.860000e+00 -4.203895e-45
-2.850000e+00 -4.203895e-45
-2.840000e+00 -5.605194e-45
-2.830000e+00 -8.407791e-45
-2.820000e+00 -9.809089e-45
-2.810000e+00 -1.401298e-44
-2.800000e+00 -1.681558e-44
-2.790000e+00 -1.821688e-44
-2.780000e+00 -1.961818e-44
-2.770000e+00 -1.961818e-44
-2.760000e+00 -1.681558e-44
-2.750000e+00 -1.681558e-44
-2.740000e+00 -1.541428e-44
-2.730000e+00 -1.541428e-44
-2.720000e+00 -8.407791e-45
-2.710000e+00 -2.802597e-45
-2.700000e+00 1.401298e-45
-2.690000e+00 1.121039e-44
-2.680000e+00 2.101948e-44
-2.670000e+00 3.082857e-44
-2.660000e+00 3.923636e-44
-2.650000e+00 4.764415e-44
-2.640000e+00 5.605194e-44
-2.630000e+00 6.586103e-44
-2.620000e+00 7.006492e-44
-2.610000e+00 7.707142e-44
-2.600000e+00 7.987401e-44
-2.590000e+00 7.847271e-44
-2.580000e+00 6.305843e-44
-2.570000e+00 5.605194e-44
-2.560000e+00 4.764415e-44
-2.550000e+00 3.783506e-44
-2.540000e+00 2.662467e-44
-2.530000e+00 9.809089e-45
-2.520000e+00 -9.809089e-45
-2.510000e+00 -3.082857e-44
-2.500000e+00 -5.184804e-44
-2.490000e+00 -7.847271e-44
-2.480000e+00 -1.050974e-43
-2.470000e+00 -1.247156e-43
-2.460000e+00 -1.499389e-43
-2.450000e+00 -1.737610e-43
-2.440000e+00 -1.877740e-43
-2.430000e+00 -1.933792e-43
-2.420000e+00 -1.891753e-43
-2.410000e+00 -1.793662e-43
-2.400000e+00 -1.485376e-43
-2.390000e+00 -1.050974e-43
-2.380000e+00 -5.465064e-44
-2.370000e+00 1.961818e-44
-2.360000e+00 1.050974e-43
-2.350000e+00 2.115961e-43
-2.340000e+00 3.321077e-43
-2.330000e+00 4.624285e-43
-2.320000e+00 6.011570e-43
-2.310000e+00 7.440895e-43
-2.300000e+00 8.772128e-43
-2.290000e+00 1.007534e-42
-2.280000e+00 1.108427e-42
-2.270000e+00 1.198110e-42
-2.260000e+00 1.251360e-42
-2.250000e+00 1.262570e-42
-2.240000e+00 1.226136e-42
-2.230000e+00 1.132249e-42
-2.220000e+00 9.823102e-43
-2.210000e+00 7.665103e-43
-2.200000e+00 4.834480e-43
-2.190000e+00 1.317221e-43
-2.180000e+00 -2.788584e-43
-2.170000e+00 -7.679116e-43
-2.160000e+00 -1.301806e-42
-2.150000e+00 -1.880543e-42
-2.140000e+00 -2.484502e-42
-2.130000e+00 -3.089863e-42
-2.120000e+00 -3.681211e-42
-2.110000e+00 -4.222112e-42
-2.100000e+00 -4.684541e-42
-2.090000e+00 -5.036267e-42
-2.080000e+00 -5.229646e-42
-2.070000e+00 -5.252067e-42
-2.060000e+00 -5.054484e-42
-2.050000e+00 -4.613075e-42
-2.040000e+00 -3.902616e-42
-2.030000e+00 -2.890879e-42
-2.020000e+00 -1.576461e-42
-2.010000e+00 4.484155e-44
-2.000000e+00 1.959015e-42
-1.990000e+00 4.145041e-42
-1.980000e+00 6.548268e-42
-1.970000e+00 9.128058e-42
-1.960000e+00 1.179473e-41
-1.950000e+00 1.446560e-41
-1.940000e+00 1.702297e-41
-1.930000e+00 1.935053e-41
-1.920000e+00 2.130534e-41
-1.910000e+00 2.274307e-41
-1.900000e+00 2.351519e-41
-1.890000e+00 2.346474e-41
-1.880000e+00 2.245441e-41
-1.870000e+00 2.036227e-41
-1.860000e+00 1.706782e-41
-1.850000e+00 1.250098e-41
-1.840000e+00 6.625339e-42
-1.830000e+00 -5.507103e-43
-1.820000e+00 -8.973915e-42
-1.810000e+00 -1.850975e-41
-1.800000e+00 -2.897325e-41
-1.790000e+00 -4.011217e-41
-1.780000e+00 -5.158600e-41
-1.770000e+00 -6.299117e-41
-1.760000e+00 -7.385684e-41
-1.750000e+00 -8.366032e-41
-1.740000e+00 -9.182288e-41
-1.730000e+00 -9.773636e-41
-1.720000e+00 -1.007772e-40
-1.710000e+00 -1.003288e-40
-1.700000e+00 -9.582079e-41
-1.690000e+00 -8.673477e-41
-1.680000e+00 -7.265032e-41
-1.670000e+00 -5.328157e-41
-1.660000e+00 -2.849961e-41
-1.650000e+00 1.625506e-42
-1.640000e+00 3.679810e-41
-1.630000e+00 7.647586e-41
-1.620000e+00 1.198390e-40
-1.610000e+00 1.657960e-40
-1.600000e+00 2.129567e-40
-1.590000e+00 2.596466e-40
-1.580000e+00 3.039528e-40
-1.570000e+00 3.437105e-40
-1.560000e+00 3.766046e-40
-1.550000e+00 4.001604e-40
-1.540000e+00 4.119201e-40
-1.530000e+00 4.094524e-40
-1.520000e+00 3.904984e-40
-1.510000e+00 3.530726e-40
-1.500000e+00 2.955927e-40
-1.490000e+00 2.170149e-40
-1.480000e+00 1.169608e-40
-1.470000e+00 -4.180073e-42
-1.460000e+00 -1.451059e-40
-1.450000e+00 -3.035156e-40
-1.440000e+00 -4.760813e-40
-1.430000e+00 -6.583524e-40
-1.420000e+00 -8.447420e-40
-1.410000e+00 -1.028664e-39
-1.400000e+00 -1.202492e-39
-1.390000e+00 -1.357811e-39
-1.380000e+00 -1.485535e-39
-1.370000e+00 -1.576246e-39
-1.360000e+00 -1.620398e-39
-1.350000e+00 -1.608764e-39
-1.340000e+00 -1.532850e-39
-1.330000e+00 -1.385231e-39
-1.320000e+00 -1.160188e-39
-1.310000e+00 -8.540466e-40
-1.300000e+00 -4.657440e-40
-1.290000e+00 2.756354e-42
-1.280000e+00 5.460608e-40
-1.270000e+00 1.154988e-39
-1.260000e+00 1.816373e-39
-1.250000e+00 2.512901e-39
-1.240000e+00 3.223184e-39
-1.230000e+00 3.921895e-39
-1.220000e+00 4.580178e-39
-1.210000e+00 5.166237e-39
-1.200000e+00 5.646033e-39
-1.190000e+00 5.984359e-39
-1.180000e+00 6.145954e-39
-1.170000e+00 6.096891e-39
-1.160000e+00 5.806091e-39
-1.150000e+00 5.246997e-39
-1.140000e+00 4.399291e-39
-1.130000e+00 3.250635e-39
-1.120000e+00 1.798387e-39
-1.110000e+00 5.125670e-41
-1.100000e+00 -1.969416e-39
-1.090000e+00 -4.228338e-39
-1.080000e+00 -6.675692e-39
-1.070000e+00 -9.246715e-39
-1.060000e+00 -1.186188e-38
-1.050000e+00 -1.442782e-38
-1.040000e+00 -1.683868e-38
-1.030000e+00 -1.897842e-38
-1.020000e+00 -2.072362e-38
-1.010000e+00 -2.194717e-38
-1.000000e+00 -2.252261e-38
-9.900002e-01 -2.232908e-38
-9.800000e-01 -2.125680e-38
-9.700003e-01 -1.921295e-38
-9.600000e-01 -1.612786e-38
-9.500003e-01 -1.196113e-38
-9.400001e-01 -6.707660e-39
-9.300003e-01 -4.030275e-40
-9.200001e-01 6.871613e-39
-9.100003e-01 1.498585e-38
-9.000001e-01 2.375761e-38
-8.900003e-01 3.295253e-38
-8.800001e-01 4.228471e-38
-8.700004e-01 5.142046e-38
-8.600001e-01 5.998353e-38
-8.500004e-01 6.756326e-38
-8.400002e-01 7.372517e-38
-8.299999e-01 7.802394e-38
-8.200002e-01 8.001883e-38
-8.099999e-01 7.929114e-38
-8.000002e-01 7.546336e-38
-7.900000e-01 6.821974e-38
-7.800002e-01 5.732738e-38
-7.700000e-01 4.265726e-38
-7.600002e-01 2.420450e-38
-7.500000e-01 2.106893e-39
-7.400002e-01 -2.333941e-38
-7.300000e-01 -5.166825e-38
-7.200003e-01 -8.223540e-38
-7.100000e-01 -1.142178e-37
-7.000003e-01 -1.466180e-37
-6.900001e-01 -1.782767e-37
-6.800003e-01 -2.078930e-37
-6.700001e-01 -2.340528e-37
-6.600003e-01 -2.552664e-37
-6.500001e-01 -2.700132e-37
-6.400003e-01 -2.767947e-37
-6.300001e-01 -2.741945e-37
-6.200004e-01 -2.609442e-37
-6.100001e-01 -2.359914e-37
-6.000004e-01 -1.985717e-37
-5.900002e-01 -1.482789e-37
-5.800004e-01 -8.513138e-38
-5.700002e-01 -9.633589e-39
-5.599999e-01 7.717376e-38
-5.500002e-01 1.736756e-37
-5.400000e-01 2.776597e-37
-5.300002e-01 3.863161e-37
-5.200000e-01 4.962549e-37
-5.100002e-01 6.035523e-37
-5.000000e-01 7.038190e-37
-4.900002e-01 7.923011e-37
-4.800000e-01 8.640038e-37
-4.700003e-01 9.138459e-37
-4.600000e-01 9.368361e-37
-4.500003e-01 9.282738e-37
-4.400001e-01 8.839662e-37
-4.300003e-01 8.004548e-37
-4.200001e-01 6.752526e-37
-4.100003e-01 5.070709e-37
-4.000001e-01 2.960410e-37
-3.900003e-01 4.390295e-38
-3.800001e-01 -2.458217e-37
-3.700004e-01 -5.677190e-37
-3.600001e-01 -9.144108e-37
-3.500004e-01 -1.276560e-36
-3.400002e-01 -1.642929e-36
-3.300004e-01 -2.000546e-36
-3.200002e-01 -2.334933e-36
-3.099999e-01 -2.630429e-36
-3.000002e-01 -2.870616e-36
-2.900000e-01 -3.038814e-36
-2.800002e-01 -3.118661e-36
-2.700000e-01 -3.094768e-36
-2.600002e-01 -2.953418e-36
-2.500000e-01 -2.683312e-36
-2.400002e-01 -2.276319e-36
-2.300000e-01 -1.728219e-36
-2.200003e-01 -1.039398e-36
-2.100000e-01 -2.154839e-37
-2.000003e-01 7.321452e-37
-1.900001e-01 1.785977e-36
-1.800003e-01 2.922165e-36
-1.700001e-01 4.110516e-36
-1.600003e-01 5.314739e-36
-1.500001e-01 6.492926e-36
-1.400003e-01 7.598309e-36
-1.300001e-01 8.580332e-36
-1.200004e-01 9.385930e-36
-1.100001e-01 9.961171e-36
-1.000004e-01 1.025312e-35
-9.000015e-02 1.021183e-35
-8.000040e-02 9.792677e-36
-7.000017e-02 8.958641e-36
-5.999994e-02 7.682729e-36
-5.000019e-02 5.950324e-36
-3.999996e-02 3.761396e-36
-3.000021e-02 1.132479e-36
-1.999998e-02 -1.901608e-36
-1.000023e-02 -5.286658e-36
0.000000e+00 -8.948290e-36
1.000023e-02 -1.279198e-35
1.999950e-02 -1.670373e-35
2.999973e-02 -2.055157e-35
3.999996e-02 -2.418786e-35
5.000019e-02 -2.745253e-35
5.999947e-02 -3.017725e-35
6.999969e-02 -3.219023e-35
7.999992e-02 -3.332209e-35
9.000015e-02 -3.341216e-35
9.999943e-02 -3.231556e-35
1.099997e-01 -2.991034e-35
1.199999e-01 -2.610511e-35
1.300001e-01 -2.084626e-35
1.399994e-01 -1.412499e-35
1.499996e-01 -5.983648e-36
1.599998e-01 3.479115e-36
1.700001e-01 1.410424e-35
1.799994e-01 2.567002e-35
1.899996e-01 3.789156e-35
1.999998e-01 5.042278e-35
2.100000e-01 6.286023e-35
2.200003e-01 7.475053e-35
2.299995e-01 8.559898e-35
2.399998e-01 9.488248e-35
2.500000e-01 1.020638e-34
2.600002e-01 1.066091e-34
2.699995e-01 1.080069e-34
2.799997e-01 1.057895e-34
2.900000e-01 9.955467e-35
3.000002e-01 8.898891e-35
3.099995e-01 7.388970e-35
3.199997e-01 5.418732e-35
3.299999e-01 2.996431e-35
3.400002e-01 1.472414e-36
3.499994e-01 -3.085421e-35
3.599997e-01 -6.639068e-35
3.699999e-01 -1.043188e-34
3.800001e-01 -1.436307e-34
3.899994e-01 -1.831390e-34
3.999996e-01 -2.214965e-34
4.099998e-01 -2.572213e-34
4.200001e-01 -2.887316e-34
4.299994e-01 -3.143892e-34
4.399996e-01 -3.325469e-34
4.499998e-01 -3.416059e-34
4.600000e-01 -3.400773e-34
4.700003e-01 -3.266486e-34
4.799995e-01 -3.002488e-34
4.899998e-01 -2.601187e-34
5.000000e-01 -2.058747e-34
5.100002e-01 -1.375706e-34
5.199995e-01 -5.574974e-35
5.299997e-01 3.851144e-35
5.400000e-01 1.435740e-34
5.500002e-01 2.572235e-34
5.599995e-01 3.766714e-34
5.699997e-01 4.985829e-34
5.799999e-01 6.191192e-34
5.900002e-01 7.340105e-34
5.999994e-01 8.386451e-34
6.099997e-01 9.281860e-34
6.199999e-01 9.977089e-34
6.300001e-01 1.042359e-33
6.399994e-01 1.057523e-33
6.499996e-01 1.039018e-33
6.599998e-01 9.832845e-34
6.700001e-01 8.875859e-34
6.799994e-01 7.501974e-34
6.899996e-01 5.705921e-34
6.999998e-01 3.495999e-34
7.100000e-01 8.954760e-35
7.200003e-01 -2.056438e-34
7.299995e-01 -5.303922e-34
7.399998e-01 -8.774523e-34
7.500000e-01 -1.237951e-33
7.600002e-01 -1.601500e-33
7.699995e-01 -1.956357e-33
7.799997e-01 -2.289661e-33
7.900000e-01 -2.587735e-33
8.000002e-01 -2.836443e-33
8.099995e-01 -3.021616e-33
8.199997e-01 -3.129512e-33
8.299999e-01 -3.147337e-33
8.400002e-01 -3.063781e-33
8.499994e-01 -2.869565e-33
8.599997e-01 -2.557996e-33
8.699999e-01 -2.125487e-33
8.800001e-01 -1.572042e-33
8.899994e-01 -9.016659e-34
8.999996e-01 -1.227053e-34
9.099998e-01 7.519397e-34
9.200001e-01 1.704708e-33
9.299994e-01 2.713426e-33
9.399996e-01 3.751528e-33
9.499998e-01 4.788417e-33
9.600000e-01 5.790029e-33
9.700003e-01 6.719565e-33
9.799995e-01 7.538392e-33
9.899998e-01 8.207133e-33
1.000000e+00 8.686855e-33
1.010000e+00 8.940441e-33
1.020000e+00 8.933989e-33
1.030000e+00 8.638312e-33
1.040000e+00 8.030429e-33
1.050000e+00 7.094999e-33
1.059999e+00 5.825708e-33
1.070000e+00 4.226447e-33
1.080000e+00 2.312337e-33
1.090000e+00 1.104715e-34
1.099999e+00 -2.339668e-33
1.110000e+00 -4.986129e-33
1.120000e+00 -7.764853e-33
1.130000e+00 -1.060043e-32
1.139999e+00 -1.340737e-32
1.150000e+00 -1.609176e-32
1.160000e+00 -1.855352e-32
1.170000e+00 -2.068894e-32
1.179999e+00 -2.239379e-32
1.190000e+00 -2.356654e-32
1.200000e+00 -2.411213e-32
1.210000e+00 -2.394575e-32
1.220000e+00 -2.299668e-32
1.230000e+00 -2.121217e-32
1.240000e+00 -1.856102e-32
1.250000e+00 -1.503700e-32
1.260000e+00 -1.066163e-32
1.270000e+00 -5.486431e-33
1.280000e+00 4.055822e-34
1.290000e+00 6.899344e-33
1.300000e+00 1.384813e-32
1.309999e+00 2.107501e-32
1.320000e+00 2.837555e-32
1.330000e+00 3.552171e-32
1.340000e+00 4.226676e-32
1.349999e+00 4.835155e-32
1.360000e+00 5.351175e-32
1.370000e+00 5.748598e-32
1.380000e+00 6.002467e-32
1.389999e+00 6.089972e-32
1.400000e+00 5.991403e-32
1.410000e+00 5.691125e-32
1.420000e+00 5.178520e-32
1.429999e+00 4.448851e-32
1.440000e+00 3.504017e-32
1.450000e+00 2.353167e-32
1.460000e+00 1.013155e-32
1.469999e+00 -4.912543e-33
1.480000e+00 -2.127382e-32
1.490000e+00 -3.854921e-32
1.500000e+00 -5.626517e-32
1.510000e+00 -7.388585e-32
1.520000e+00 -9.082502e-32
1.530000e+00 -1.064600e-31
1.540000e+00 -1.201495e-31
1.550000e+00 -1.312524e-31
1.559999e+00 -1.391495e-31
1.570000e+00 -1.432666e-31
1.580000e+00 -1.430978e-31
1.590000e+00 -1.382300e-31
1.599999e+00 -1.283657e-31
1.610000e+00 -1.133448e-31
1.620000e+00 -9.316386e-32
1.630000e+00 -6.799242e-32
1.639999e+00 -3.818423e-32
1.650000e+00 -4.284439e-33
1.660000e+00 3.296969e-32
1.670000e+00 7.265428e-32
1.679999e+00 1.136708e-31
1.690000e+00 1.547664e-31
1.700000e+00 1.945599e-31
1.710000e+00 2.315760e-31
1.719999e+00 2.642868e-31
1.730000e+00 2.911569e-31
1.740000e+00 3.106964e-31
1.750000e+00 3.215159e-31
1.760000e+00 3.223849e-31
1.770000e+00 3.122896e-31
1.780000e+00 2.904906e-31
1.790000e+00 2.565768e-31
1.800000e+00 2.105122e-31
1.809999e+00 1.526785e-31
1.820000e+00 8.390274e-32
1.830000e+00 5.477041e-33
1.840000e+00 -8.083834e-32
1.849999e+00 -1.728263e-31
1.860000e+00 -2.678417e-31
1.870000e+00 -3.628582e-31
1.880000e+00 -4.545323e-31
1.889999e+00 -5.392864e-31
1.900000e+00 -6.134071e-31
1.910000e+00 -6.731613e-31
1.920000e+00 -7.149223e-31
1.929999e+00 -7.353064e-31
1.940000e+00 -7.313214e-31
1.950000e+00 -7.005091e-31
1.960000e+00 -6.410874e-31
1.969999e+00 -5.520915e-31
1.980000e+00 -4.334911e-31
1.990000e+00 -2.862976e-31
2.000000e+00 -1.126417e-31
2.010000e+00 8.417783e-32
2.020000e+00 2.996802e-31
2.030000e+00 5.282250e-31
2.040000e+00 7.630818e-31
2.050000e+00 9.965426e-31
2.059999e+00 1.220079e-30
2.070000e+00 1.424548e-30
2.080000e+00 1.600439e-30
2.090000e+00 1.738163e-30
2.099999e+00 1.828379e-30
2.110000e+00 1.862339e-30
2.120000e+00 1.832265e-30
2.130000e+00 1.731724e-30
2.139999e+00 1.556007e-30
2.150000e+00 1.302488e-30
2.160000e+00 9.709505e-31
2.170000e+00 5.638800e-31
2.179999e+00 8.667753e-32
2.190000e+00 -4.521738e-31
2.200000e+00 -1.041053e-30
2.210000e+00 -1.665236e-30
2.219999e+00 -2.307030e-30
2.230000e+00 -2.946036e-30
2.240000e+00 -3.559530e-30
2.250000e+00 -4.122964e-30
2.260000e+00 -4.610578e-30
2.270000e+00 -4.996137e-30
2.280000e+00 -5.253763e-30
2.290000e+00 -5.358846e-30
2.300000e+00 -5.289018e-30
2.309999e+00 -5.025176e-30
2.320000e+00 -4.552493e-30
2.330000e+00 -3.861434e-30
2.340000e+00 -2.948666e-30
2.349999e+00 -1.817932e-30
2.360000e+00 -4.807367e-31
2.370000e+00 1.043109e-30
2.380000e+00 2.725202e-30
2.389999e+00 4.528412e-30
2.400000e+00 6.407142e-30
2.410000e+00 8.307783e-30
2.420000e+00 1.016958e-29
2.429999e+00 1.192571e-29
2.440000e+00 1.350482e-29
2.450000e+00 1.483279e-29
2.460000e+00 1.583479e-29
2.469999e+00 1.643768e-29
2.480000e+00 1.657253e-29
2.490000e+00 1.617733e-29
2.500000e+00 1.519983e-29
2.510000e+00 1.360036e-29
2.520000e+00 1.135451e-29
2.530000e+00 8.455759e-30
2.540000e+00 4.917749e-30
2.550000e+00 7.761955e-31
2.559999e+00 -3.909685e-30
2.570000e+00 -9.056284e-30
2.580000e+00 -1.455548e-29
2.590000e+00 -2.027506e-29
2.599999e+00 -2.606024e-29
2.610000e+00 -3.173588e-29
2.620000e+00 -3.710946e-29
2.630000e+00 -4.197532e-29
2.639999e+00 -4.611929e-29
2.650000e+00 -4.932464e-29
2.660000e+00 -5.137826e-29
2.670000e+00 -5.207778e-29
2.679999e+00 -5.123910e-29
2.690000e+00 -4.870402e-29
2.700000e+00 -4.434815e-29
2.710000e+00 -3.808856e-29
2.719999e+00 -2.989102e-29
2.730000e+00 -1.977666e-29
2.740000e+00 -7.827450e-30
2.750000e+00 5.809204e-30
2.760000e+00 2.091759e-29
2.770000e+00 3.721253e-29
2.780000e+00 5.434011e-29
2.790000e+00 7.188048e-29
2.800000e+00 8.935327e-29
2.809999e+00 1.062249e-28
2.820000e+00 1.219191e-28
2.830000e+00 1.358282e-28
2.840000e+00 1.473292e-28
2.849999e+00 1.557995e-28
2.860000e+00 1.606356e-28
2.870000e+00 1.612733e-28
2.880000e+00 1.572083e-28
2.889999e+00 1.480185e-28
2.900000e+00 1.333841e-28
2.910000e+00 1.131096e-28
2.920000e+00 8.714235e-29
2.929999e+00 5.559015e-29
2.940000e+00 1.873577e-29
2.950000e+00 -2.295282e-29
2.960000e+00 -6.881470e-29
2.969999e+00 -1.179949e-28
2.980000e+00 -1.694477e-28
2.990000e+00 -2.219462e-28
3.000000e+00 -2.740975e-28
3.010000e+00 -3.243651e-28
3.020000e+00 -3.710977e-28
3.030000e+00 -4.125623e-28
3.040000e+00 -4.469874e-28
3.050000e+00 -4.726065e-28
3.059999e+00 -4.877119e-28
3.070000e+00 -4.907048e-28
3.080000e+00 -4.801564e-28
3.090000e+00 -4.548645e-28
3.099999e+00 -4.139108e-28