-8.000000e+00 0.000000e+00
-7.950000e+00 0.000000e+00
-7.900000e+00 0.000000e+00
-7.850000e+00 0.000000e+00
-7.800000e+00 0.000000e+00
-7.750000e+00 0.000000e+00
-7.700000e+00 0.000000e+00
-7.650000e+00 0.000000e+00
-7.600000e+00 0.000000e+00
-7.550000e+00 0.000000e+00
-7.500000e+00 0.000000e+00
-7.450000e+00 0.000000e+00
-7.400000e+00 0.000000e+00
-7.350000e+00 0.000000e+00
-7.300000e+00 -8.509385e-41
-7.250000e+00 -5.151162e-39
-7.200000e+00 -1.224612e-37
-7.150000e+00 -1.698042e-36
-7.100000e+00 -1.576757e-35
-7.050000e+00 -1.058461e-34
-7.000000e+00 -5.380732e-34
-6.950000e+00 -2.124293e-33
-6.900000e+00 -6.545170e-33
-6.850000e+00 -1.534749e-32
-6.800000e+00 -2.468125e-32
-6.750000e+00 -1.404552e-32
-6.700000e+00 6.126329e-32
-6.650000e+00 2.404811e-31
-6.600000e+00 4.484335e-31
-6.550000e+00 3.430294e-31
-6.500000e+00 -6.387818e-31
-6.450000e+00 -2.640002e-30
-6.400000e+00 -4.156317e-30
-6.350000e+00 -1.546791e-30
-6.300000e+00 8.194075e-30
-6.250000e+00 2.072227e-29
-6.200000e+00 1.979062e-29
-6.150000e+00 -1.275183e-29
-6.100000e+00 -6.831097e-29
-6.050000e+00 -8.992042e-29
-6.000000e+00 -7.114299e-30
-5.950000e+00 1.631234e-28
-5.900000e+00 2.538581e-28
-5.850000e+00 8.499621e-29
-5.800000e+00 -2.413324e-28
-5.750000e+00 -3.118679e-28
-5.700000e+00 -3.065542e-29
-5.650000e+00 -2.828155e-28
-5.600000e+00 -1.886928e-27
-5.550000e+00 -2.449558e-27
-5.500000e+00 4.362493e-27
-5.450000e+00 1.983205e-26
-5.400000e+00 2.423737e-26
-5.350000e+00 -2.067494e-26
-5.300000e+00 -1.196647e-25
-5.250000e+00 -1.653035e-25
-5.200000e+00 4.491242e-26
-5.150000e+00 5.615105e-25
-5.100000e+00 9.153023e-25
-5.050000e+00 1.543947e-25
-5.000000e+00 -2.143070e-24
-4.950000e+00 -4.271451e-24
-4.900000e+00 -2.248585e-24
-4.850000e+00 6.547929e-24
-4.800000e+00 1.701204e-23
-4.750000e+00 1.433618e-23
-4.700000e+00 -1.456854e-23
-4.650000e+00 -5.795333e-23
-4.600000e+00 -6.704433e-23
-4.550000e+00 1.307046e-23
-4.500000e+00 1.674010e-22
-4.450000e+00 2.546519e-22
-4.400000e+00 7.617479e-23
-4.350000e+00 -3.983196e-22
-4.300000e+00 -8.140950e-22
-4.250000e+00 -5.426611e-22
-4.200000e+00 7.163753e-22
-4.150000e+00 2.215780e-21
-4.100000e+00 2.204101e-21
-4.050000e+00 -6.428514e-22
-4.000000e+00 -5.113438e-21
-3.950000e+00 -6.899325e-21
-3.900000e+00 -1.596316e-21
-3.850000e+00 9.776331e-21
-3.800000e+00 1.788182e-20
-3.750000e+00 1.048815e-20
-3.700000e+00 -1.451102e-20
-3.650000e+00 -3.938011e-20
-3.600000e+00 -3.458837e-20
-3.550000e+00 1.323248e-20
-3.500000e+00 7.471495e-20
-3.450000e+00 8.622471e-20
-3.400000e+00 5.326759e-21
-3.350000e+00 -1.254471e-19
-3.300000e+00 -1.797656e-19
-3.250000e+00 -5.172598e-20
-3.200000e+00 2.031306e-19
-3.150000e+00 3.423527e-19
-3.100000e+00 1.278971e-19
-3.050000e+00 -3.729337e-19
-3.000000e+00 -6.859717e-19
-2.950000e+00 -2.776603e-19
-2.900000e+00 8.037825e-19
-2.850000e+00 1.607674e-18
-2.800000e+00 8.778689e-19
-2.750000e+00 -1.588595e-18
-2.700000e+00 -3.989586e-18
-2.650000e+00 -3.355114e-18
-2.600000e+00 1.729645e-18
-2.550000e+00 8.534583e-18
-2.500000e+00 1.071104e-17
-2.450000e+00 3.047592e-18
-2.400000e+00 -1.245833e-17
-2.350000e+00 -2.492094e-17
-2.300000e+00 -2.098460e-17
-2.250000e+00 3.641162e-18
-2.200000e+00 3.671704e-17
-2.150000e+00 5.440874e-17
-2.100000e+00 3.761499e-17
-2.050000e+00 -1.209679e-17
-2.000000e+00 -7.039734e-17
-1.950000e+00 -1.043377e-16
-1.900000e+00 -9.068429e-17
-1.850000e+00 -2.387942e-17
-1.800000e+00 8.675834e-17
-1.750000e+00 2.152738e-16
-1.700000e+00 3.033465e-16
-1.650000e+00 2.519797e-16
-1.600000e+00 -3.453962e-17
-1.550000e+00 -5.361896e-16
-1.500000e+00 -1.005260e-15
-1.450000e+00 -9.969069e-16
-1.400000e+00 -1.415953e-16
-1.350000e+00 1.434715e-15
-1.300000e+00 2.865659e-15
-1.250000e+00 2.837757e-15
-1.200000e+00 4.830394e-16
-1.150000e+00 -3.599503e-15
-1.100000e+00 -7.036055e-15
-1.050000e+00 -6.721849e-15
-1.000000e+00 -1.000872e-15
-9.499998e-01 8.279800e-15
-9.000001e-01 1.555766e-14
-8.499999e-01 1.418809e-14
-7.999997e-01 1.160165e-15
-7.500000e-01 -1.878715e-14
-6.999998e-01 -3.310307e-14
-6.500001e-01 -2.748185e-14
-5.999999e-01 3.495778e-15
-5.499997e-01 4.708358e-14
-5.000000e-01 7.281132e-14
-4.499998e-01 4.818278e-14
-4.000001e-01 -3.421819e-14
-3.499999e-01 -1.345995e-13
-2.999997e-01 -1.718637e-13
-2.500000e-01 -7.084823e-14
-1.999998e-01 1.647944e-13
-1.500001e-01 4.042697e-13
-9.999990e-02 4.269268e-13
-4.999971e-02 6.679820e-14
0.000000e+00 -5.997497e-13
5.000019e-02 -1.168434e-12
1.000004e-01 -1.065602e-12
1.500006e-01 4.331409e-14
1.999998e-01 1.812807e-12
2.500000e-01 3.117226e-12
3.000002e-01 2.574281e-12
3.500004e-01 -4.174546e-13
4.000006e-01 -4.743260e-12
4.499998e-01 -7.590456e-12
5.000000e-01 -5.892715e-12
5.500002e-01 1.295337e-12
6.000004e-01 1.100425e-11
6.500006e-01 1.687495e-11
6.999998e-01 1.263408e-11
7.500000e-01 -2.961131e-12
8.000002e-01 -2.300412e-11
8.500004e-01 -3.436034e-11
9.000006e-01 -2.516378e-11
9.499998e-01 5.731912e-12
1.000000e+00 4.386671e-11
1.050000e+00 6.425988e-11
1.100000e+00 4.617231e-11
1.150001e+00 -1.022678e-11
1.200000e+00 -7.713329e-11
1.250000e+00 -1.105626e-10
1.300000e+00 -7.721137e-11
1.350000e+00 1.841460e-11
1.400001e+00 1.264923e-10
1.450000e+00 1.751156e-10
1.500000e+00 1.157963e-10
1.550000e+00 -3.600407e-11
1.600000e+00 -1.961540e-10
1.650001e+00 -2.554269e-10
1.700000e+00 -1.515109e-10
1.750000e+00 7.615929e-11
1.800000e+00 2.926187e-10
1.850000e+00 3.438746e-10
1.900001e+00 1.633994e-10
1.950000e+00 -1.626210e-10
2.000000e+00 -4.275698e-10
2.050000e+00 -4.306137e-10
2.100000e+00 -1.233382e-10
2.150001e+00 3.266318e-10
2.200000e+00 6.177491e-10
2.250000e+00 5.098009e-10
2.300000e+00 1.000026e-11
2.350000e+00 -5.884389e-10
2.400001e+00 -8.699885e-10
2.450000e+00 -5.779978e-10
2.500000e+00 1.728991e-10
2.550000e+00 9.205031e-10
2.600000e+00 1.135892e-09
2.650001e+00 5.959693e-10
2.700000e+00 -4.118009e-10
2.750000e+00 -1.228394e-09
2.800000e+00 -1.254325e-09
2.850000e+00 -3.968089e-10
2.900001e+00 7.961630e-10
2.950000e+00 1.459616e-09
3.000000e+00 1.018132e-09
3.050000e+00 -3.367043e-10
3.100000e+00 -1.673835e-09
3.150001e+00 -1.909476e-09
3.200000e+00 -5.988252e-10
3.250000e+00 1.624413e-09
3.300000e+00 3.335280e-09
3.350000e+00 3.221073e-09
3.400001e+00 1.023258e-09
3.450000e+00 -2.160204e-09
3.500000e+00 -4.501805e-09
3.550000e+00 -4.641469e-09
3.600000e+00 -2.636369e-09
3.650001e+00 5.608605e-11
3.700000e+00 1.635277e-09
3.750000e+00 1.352411e-09
3.800000e+00 2.064176e-10
3.850000e+00 3.152782e-10
3.900001e+00 3.275868e-09
3.950000e+00 8.643607e-09
4.000000e+00 1.372307e-08
4.050000e+00 1.501878e-08
4.100000e+00 1.047526e-08
4.150001e+00 9.168848e-10
4.200000e+00 -1.050499e-08
4.250000e+00 -2.069079e-08
4.300000e+00 -2.921315e-08
4.350000e+00 -3.918921e-08
4.400001e+00 -5.546877e-08
4.450000e+00 -8.111803e-08
4.500000e+00 -1.146311e-07
4.550000e+00 -1.501320e-07
4.600000e+00 -1.809414e-07
4.650001e+00 -2.044453e-07
4.700000e+00 -2.249429e-07
4.750000e+00 -2.521463e-07
4.800000e+00 -2.958120e-07
4.850000e+00 -3.597893e-07
4.900001e+00 -4.395560e-07
4.950000e+00 -5.253011e-07
5.000000e+00 -6.089588e-07
5.050000e+00 -6.907213e-07
5.100000e+00 -7.805589e-07
5.150001e+00 -8.933851e-07
5.200000e+00 -1.040775e-06
5.250000e+00 -1.224683e-06
5.300000e+00 -1.437543e-06
5.350000e+00 -1.668978e-06
5.400001e+00 -1.914854e-06
5.450000e+00 -2.182651e-06
5.500000e+00 -2.489428e-06
5.550000e+00 -2.853626e-06
5.600000e+00 -3.286180e-06
5.650001e+00 -3.787025e-06
5.700000e+00 -4.349477e-06
5.750000e+00 -4.969639e-06
5.800000e+00 -5.654475e-06
5.850000e+00 -6.423047e-06
5.900001e+00 -7.300055e-06
5.950000e+00 -8.306106e-06
6.000000e+00 -9.451421e-06
6.050000e+00 -1.073737e-05
6.100000e+00 -1.216488e-05
6.150001e+00 -1.374409e-05
6.200000e+00 -1.549878e-05
6.250000e+00 -1.746275e-05
6.300000e+00 -1.967072e-05
6.350000e+00 -2.215008e-05
6.400001e+00 -2.491880e-05
6.450000e+00 -2.799072e-05
6.500000e+00 -3.138424e-05
6.550000e+00 -3.512843e-05
6.600000e+00 -3.926298e-05
6.650001e+00 -4.383260e-05
6.700000e+00 -4.888063e-05
6.750000e+00 -5.444652e-05
6.800000e+00 -6.056854e-05
6.850000e+00 -6.728890e-05
6.900001e+00 -7.465690e-05
6.950000e+00 -8.272719e-05
7.000000e+00 -9.155482e-05
7.050000e+00 -1.011912e-04
7.100000e+00 -1.116854e-04
7.150001e+00 -1.230898e-04
7.200000e+00 -1.354669e-04
7.250000e+00 -1.488914e-04
7.300000e+00 -1.634446e-04
7.350000e+00 -1.792043e-04
7.400001e+00 -1.962368e-04
7.450000e+00 -2.145970e-04
7.500000e+00 -2.343364e-04
7.550000e+00 -2.555146e-04
7.600000e+00 -2.782061e-04
7.650001e+00 -3.024975e-04
7.700000e+00 -3.284763e-04
7.750000e+00 -3.562179e-04
7.800000e+00 -3.857801e-04
7.850000e+00 -4.172063e-04
7.900001e+00 -4.505366e-04
7.950000e+00 -4.858167e-04
8.000000e+00 -5.231011e-04
8.050001e+00 -5.624451e-04
8.100000e+00 -6.038944e-04
8.150000e+00 -6.474750e-04
8.200001e+00 -6.931917e-04
8.250000e+00 -7.410335e-04
8.300001e+00 -7.909805e-04
8.350000e+00 -8.430105e-04
8.400000e+00 -8.970978e-04
8.450001e+00 -9.532080e-04
8.500000e+00 -1.011290e-03
8.550001e+00 -1.071267e-03
8.600000e+00 -1.133039e-03
8.650000e+00 -1.196478e-03
8.700001e+00 -1.261440e-03
8.750000e+00 -1.327762e-03
8.800001e+00 -1.395271e-03
8.850000e+00 -1.463777e-03
8.900000e+00 -1.533073e-03
8.950001e+00 -1.602932e-03
9.000000e+00 -1.673096e-03
9.050001e+00 -1.743283e-03
9.100000e+00 -1.813187e-03
9.150000e+00 -1.882482e-03
9.200001e+00 -1.950826e-03
9.250000e+00 -2.017859e-03
9.300001e+00 -2.083203e-03
9.350000e+00 -2.146464e-03
9.400000e+00 -2.207233e-03
9.450001e+00 -2.265091e-03
9.500000e+00 -2.319607e-03
9.550001e+00 -2.370342e-03
9.600000e+00 -2.416846e-03
9.650000e+00 -2.458659e-03
9.700001e+00 -2.495321e-03
9.750000e+00 -2.526374e-03
9.800001e+00 -2.551370e-03
9.850000e+00 -2.569874e-03
9.900000e+00 -2.581459e-03
9.950001e+00 -2.585712e-03
1.000000e+01 -2.582232e-03
1.005000e+01 -2.570642e-03
1.010000e+01 -2.550595e-03
1.015000e+01 -2.521773e-03
1.020000e+01 -2.483894e-03
1.025000e+01 -2.436707e-03
1.030000e+01 -2.380001e-03
1.035000e+01 -2.313604e-03
1.040000e+01 -2.237398e-03
1.045000e+01 -2.151316e-03
1.050000e+01 -2.055347e-03
1.055000e+01 -1.949528e-03
1.060000e+01 -1.833947e-03
1.065000e+01 -1.708746e-03
1.070000e+01 -1.574126e-03
1.075000e+01 -1.430353e-03
1.080000e+01 -1.277758e-03
1.085000e+01 -1.116732e-03
1.090000e+01 -9.477232e-04
1.095000e+01 -7.712344e-04
1.100000e+01 -5.878215e-04
1.105000e+01 -3.980960e-04
1.110000e+01 -2.027249e-04
1.115000e+01 -2.424341e-06
1.120000e+01 2.020460e-04
1.125000e+01 4.098881e-04
1.130000e+01 6.202674e-04
1.135000e+01 8.323139e-04
1.140000e+01 1.045125e-03
1.145000e+01 1.257773e-03
1.150000e+01 1.469316e-03
1.155000e+01 1.678808e-03
1.160000e+01 1.885303e-03
1.165000e+01 2.087861e-03
1.170000e+01 2.285547e-03
1.175000e+01 2.477437e-03
1.180000e+01 2.662623e-03
1.185000e+01 2.840224e-03
1.190000e+01 3.009395e-03
1.195000e+01 3.169333e-03
1.200000e+01 3.319280e-03
1.205000e+01 3.458532e-03
1.210000e+01 3.586437e-03
1.215000e+01 3.702406e-03
1.220000e+01 3.805912e-03
1.225000e+01 3.896499e-03
1.230000e+01 3.973778e-03
1.235000e+01 4.037437e-03
1.240000e+01 4.087234e-03
1.245000e+01 4.123007e-03
1.250000e+01 4.144673e-03
1.255000e+01 4.152232e-03
1.260000e+01 4.145762e-03
1.265000e+01 4.125418e-03
1.270000e+01 4.091426e-03
1.275000e+01 4.044084e-03
1.280000e+01 3.983756e-03
1.285000e+01 3.910877e-03
1.290000e+01 3.825953e-03
1.295000e+01 3.729550e-03
1.300000e+01 3.622290e-03
1.305000e+01 3.504842e-03
1.310000e+01 3.377918e-03
1.315000e+01 3.242268e-03
1.320000e+01 3.098677e-03
1.325000e+01 2.947964e-03
1.330000e+01 2.790967e-03
1.335000e+01 2.628538e-03
1.340000e+01 2.461529e-03
1.345000e+01 2.290799e-03
1.350000e+01 2.117208e-03
1.355000e+01 1.941618e-03
1.360000e+01 1.764888e-03
1.365000e+01 1.587853e-03
1.370000e+01 1.411319e-03
1.375000e+01 1.236050e-03
1.380000e+01 1.062780e-03
1.385000e+01 8.922094e-04
1.390000e+01 7.250105e-04
1.395000e+01 5.618168e-04
1.400000e+01 4.032130e-04
1.405000e+01 2.497281e-04
1.410000e+01 1.018375e-04
1.415000e+01 -4.003005e-05
1.420000e+01 -1.754871e-04
1.425000e+01 -3.041910e-04
1.430000e+01 -4.258526e-04
1.435000e+01 -5.402433e-04
1.440000e+01 -6.471945e-04
1.445000e+01 -7.465871e-04
1.450000e+01 -8.383428e-04
1.455000e+01 -9.224206e-04
1.460000e+01 -9.988222e-04
1.465000e+01 -1.067597e-03
1.470000e+01 -1.128839e-03
1.475000e+01 -1.182684e-03
1.480000e+01 -1.229293e-03
1.485000e+01 -1.268853e-03
1.490000e+01 -1.301578e-03
1.495000e+01 -1.327714e-03
1.500000e+01 -1.347538e-03
1.505000e+01 -1.361347e-03
1.510000e+01 -1.369445e-03
1.515000e+01 -1.372139e-03
1.520000e+01 -1.369748e-03
1.525000e+01 -1.362603e-03
1.530000e+01 -1.351056e-03
1.535000e+01 -1.335460e-03
1.540000e+01 -1.316163e-03
1.545000e+01 -1.293493e-03
1.550000e+01 -1.267768e-03
1.555000e+01 -1.239307e-03
1.560000e+01 -1.208434e-03
1.565000e+01 -1.175472e-03
1.570000e+01 -1.140726e-03
1.575000e+01 -1.104474e-03
1.580000e+01 -1.066970e-03
1.585000e+01 -1.028457e-03
1.590000e+01 -9.891742e-04
1.595000e+01 -9.493604e-04
1.600000e+01 -9.092342e-04
1.605000e+01 -8.689840e-04
1.610000e+01 -8.287696e-04
1.615000e+01 -7.887347e-04
1.620000e+01 -7.490201e-04
1.625000e+01 -7.097619e-04
1.630000e+01 -6.710786e-04
1.635000e+01 -6.330566e-04
1.640000e+01 -5.957501e-04
1.645000e+01 -5.591964e-04
1.650000e+01 -5.234341e-04
1.655000e+01 -4.885059e-04
1.660000e+01 -4.544469e-04
1.665000e+01 -4.212650e-04
1.670000e+01 -3.889342e-04
1.675000e+01 -3.574053e-04
1.680000e+01 -3.266244e-04
1.685000e+01 -2.965433e-04
1.690000e+01 -2.671122e-04
1.695000e+01 -2.382649e-04
1.700000e+01 -2.099098e-04
1.705000e+01 -1.819371e-04
1.710000e+01 -1.542334e-04
1.715000e+01 -1.266901e-04
1.720000e+01 -9.919543e-05
1.725000e+01 -7.161874e-05
1.730000e+01 -4.380244e-05
1.735000e+01 -1.557132e-05
1.740000e+01 1.324836e-05
1.745000e+01 4.281729e-05
1.750000e+01 7.329054e-05
1.755000e+01 1.048379e-04
1.760000e+01 1.376585e-04
1.765000e+01 1.719764e-04
1.770000e+01 2.080206e-04
1.775000e+01 2.460074e-04
1.780000e+01 2.861409e-04
1.785000e+01 3.286306e-04
1.790000e+01 3.737081e-04
1.795000e+01 4.216287e-04
1.800000e+01 4.726540e-04
1.805000e+01 5.270337e-04
1.810000e+01 5.850017e-04
1.815000e+01 6.467904e-04
1.820000e+01 7.126463e-04
1.825000e+01 7.828324e-04
1.830000e+01 8.576121e-04
1.835000e+01 9.372293e-04
1.840000e+01 1.021903e-03
1.845000e+01 1.111839e-03
1.850000e+01 1.207249e-03
1.855000e+01 1.308352e-03
1.860000e+01 1.415361e-03
1.865000e+01 1.528457e-03
1.870000e+01 1.647777e-03
1.875000e+01 1.773422e-03
1.880000e+01 1.905475e-03
1.885000e+01 2.044012e-03
1.890000e+01 2.189090e-03
1.895000e+01 2.340727e-03
1.900000e+01 2.498884e-03
1.905000e+01 2.663462e-03
1.910000e+01 2.834321e-03
1.915000e+01 3.011290e-03
1.920000e+01 3.194160e-03
1.925000e+01 3.382663e-03
1.930000e+01 3.576459e-03
1.935000e+01 3.775134e-03
1.940000e+01 3.978209e-03
1.945000e+01 4.185156e-03
1.950000e+01 4.395394e-03
1.955000e+01 4.608278e-03
1.960000e+01 4.823073e-03
1.965000e+01 5.038961e-03
1.970000e+01 5.255049e-03
1.975000e+01 5.470388e-03
1.980000e+01 5.683975e-03
1.985000e+01 5.894750e-03
1.990000e+01 6.101580e-03
1.995000e+01 6.303254e-03
2.000000e+01 6.498494e-03
2.005000e+01 6.685977e-03
2.010000e+01 6.864349e-03
2.015000e+01 7.032219e-03
2.020000e+01 7.188158e-03
2.025000e+01 7.330701e-03
2.030000e+01 7.458350e-03
2.035000e+01 7.569604e-03
2.040000e+01 7.662970e-03
2.045000e+01 7.736975e-03
2.050000e+01 7.790166e-03
2.055000e+01 7.821112e-03
2.060000e+01 7.828414e-03
2.065000e+01 7.810728e-03
2.070000e+01 7.766783e-03
2.075000e+01 7.695399e-03
2.080000e+01 7.595489e-03
2.085000e+01 7.466066e-03
2.090000e+01 7.306246e-03
2.095000e+01 7.115273e-03
2.100000e+01 6.892532e-03
2.105000e+01 6.637564e-03
2.110000e+01 6.350073e-03
2.115000e+01 6.029932e-03
2.120000e+01 5.677186e-03
2.125000e+01 5.292062e-03
2.130000e+01 4.874977e-03
2.135000e+01 4.426551e-03
2.140000e+01 3.947604e-03
2.145000e+01 3.439159e-03
2.150000e+01 2.902435e-03
2.155000e+01 2.338849e-03
2.160000e+01 1.750015e-03
2.165000e+01 1.137746e-03
2.170000e+01 5.040485e-04
2.175000e+01 -1.488897e-04
2.180000e+01 -8.187132e-04
2.185000e+01 -1.502911e-03
2.190000e+01 -2.198827e-03
2.195000e+01 -2.903667e-03
2.200000e+01 -3.614507e-03
2.205000e+01 -4.328321e-03
2.210000e+01 -5.041996e-03
2.215000e+01 -5.752361e-03
2.220000e+01 -6.456206e-03
2.225000e+01 -7.150299e-03
2.230000e+01 -7.831398e-03
2.235000e+01 -8.496269e-03
2.240000e+01 -9.141710e-03
2.245000e+01 -9.764587e-03
2.250000e+01 -1.036186e-02
2.255000e+01 -1.093061e-02
2.260000e+01 -1.146802e-02
2.265000e+01 -1.197143e-02
2.270000e+01 -1.243833e-02
2.275000e+01 -1.286639e-02
2.280000e+01 -1.325347e-02
2.285000e+01 -1.359767e-02
2.290000e+01 -1.389735e-02
2.295000e+01 -1.415105e-02
2.300000e+01 -1.435761e-02
2.305000e+01 -1.451609e-02
2.310000e+01 -1.462581e-02
2.315000e+01 -1.468643e-02
2.320000e+01 -1.469782e-02
2.325000e+01 -1.466016e-02
2.330000e+01 -1.457388e-02
2.335000e+01 -1.443965e-02
2.340000e+01 -1.425841e-02
2.345000e+01 -1.403137e-02
2.350000e+01 -1.376002e-02
2.355000e+01 -1.344605e-02
2.360000e+01 -1.309137e-02
2.365000e+01 -1.269808e-02
2.370000e+01 -1.226844e-02
2.375000e+01 -1.180492e-02
2.380000e+01 -1.131012e-02
2.385000e+01 -1.078681e-02
2.390000e+01 -1.023783e-02
2.395000e+01 -9.666079e-03
2.400000e+01 -9.074563e-03
2.405000e+01 -8.466331e-03
2.410000e+01 -7.844473e-03
2.415000e+01 -7.212097e-03
2.420000e+01 -6.572267e-03
2.425000e+01 -5.927995e-03
2.430000e+01 -5.282226e-03
2.435000e+01 -4.637851e-03
2.440000e+01 -3.997691e-03
2.445000e+01 -3.364479e-03
2.450000e+01 -2.740808e-03
2.455000e+01 -2.129120e-03
2.460000e+01 -1.531695e-03
2.465000e+01 -9.506665e-04
2.470000e+01 -3.880228e-04
2.475000e+01 1.544034e-04
2.480000e+01 6.749623e-04
2.485000e+01 1.172205e-03
2.490000e+01 1.644886e-03
2.495000e+01 2.091939e-03
2.500000e+01 2.512471e-03
2.505000e+01 2.905750e-03
2.510000e+01 3.271228e-03
2.515000e+01 3.608544e-03
2.520000e+01 3.917527e-03
2.525000e+01 4.198174e-03
2.530000e+01 4.450623e-03
2.535000e+01 4.675147e-03
2.540000e+01 4.872153e-03
2.545000e+01 5.042186e-03
2.550000e+01 5.185921e-03
2.555000e+01 5.304148e-03
2.560000e+01 5.397748e-03
2.565000e+01 5.467677e-03
2.570000e+01 5.514964e-03
2.575000e+01 5.540704e-03
2.580000e+01 5.546058e-03
2.585000e+01 5.532234e-03
2.590000e+01 5.500469e-03
2.595000e+01 5.452015e-03
2.600000e+01 5.388135e-03
2.605000e+01 5.310097e-03
2.610000e+01 5.219172e-03
2.615000e+01 5.116612e-03
2.620000e+01 5.003650e-03
2.625000e+01 4.881488e-03
2.630000e+01 4.751295e-03
2.635000e+01 4.614213e-03
2.640000e+01 4.471348e-03
2.645000e+01 4.323755e-03
2.650000e+01 4.172437e-03
2.655000e+01 4.018331e-03
2.660000e+01 3.862318e-03
2.665000e+01 3.705224e-03
2.670000e+01 3.547826e-03
2.675000e+01 3.390843e-03
2.680000e+01 3.234933e-03
2.685000e+01 3.080691e-03
2.690000e+01 2.928658e-03
2.695000e+01 2.779320e-03
2.700000e+01 2.633115e-03
2.705000e+01 2.490427e-03
2.710000e+01 2.351586e-03
2.715000e+01 2.216866e-03
2.720000e+01 2.086490e-03
2.725000e+01 1.960642e-03
2.730000e+01 1.839467e-03
2.735000e+01 1.723076e-03
2.740000e+01 1.611546e-03
2.745000e+01 1.504919e-03
2.750000e+01 1.403210e-03
2.755000e+01 1.306405e-03
2.760000e+01 1.214465e-03
2.765000e+01 1.127323e-03
2.770000e+01 1.044890e-03
2.775000e+01 9.670578e-04
2.780000e+01 8.937102e-04
2.785000e+01 8.247235e-04
2.790000e+01 7.599660e-04
2.795000e+01 6.992948e-04
2.800000e+01 6.425541e-04
2.805000e+01 5.895807e-04
2.810000e+01 5.402103e-04
2.815000e+01 4.942821e-04
2.820000e+01 4.516362e-04
2.825000e+01 4.121089e-04
2.830000e+01 3.755317e-04
2.835000e+01 3.417352e-04
2.840000e+01 3.105567e-04
2.845000e+01 2.818440e-04
2.850000e+01 2.554527e-04
2.855000e+01 2.312404e-04
2.860000e+01 2.090622e-04
2.865000e+01 1.887747e-04
2.870000e+01 1.702429e-04
2.875000e+01 1.533448e-04
2.880000e+01 1.379690e-04
2.885000e+01 1.240069e-04
2.890000e+01 1.113475e-04
2.895000e+01 9.987883e-05
2.900000e+01 8.949608e-05
2.905000e+01 8.010825e-05
2.910000e+01 7.163778e-05
2.915000e+01 6.401347e-05
2.920000e+01 5.716295e-05
2.925000e+01 5.101140e-05
2.930000e+01 4.548716e-05
2.935000e+01 4.052855e-05
2.940000e+01 3.608565e-05
2.945000e+01 3.211508e-05
