-8.000000e+00 0.000000e+00
-7.990000e+00 0.000000e+00
-7.980000e+00 0.000000e+00
-7.970000e+00 0.000000e+00
-7.960000e+00 0.000000e+00
-7.950000e+00 0.000000e+00
-7.940000e+00 0.000000e+00
-7.930000e+00 0.000000e+00
-7.920000e+00 0.000000e+00
-7.910000e+00 0.000000e+00
-7.900000e+00 -1.541428e-44
-7.890000e+00 -1.513402e-43
-7.880000e+00 -1.105624e-42
-7.870000e+00 -6.420750e-42
-7.860000e+00 -3.136526e-41
-7.850000e+00 -1.333868e-40
-7.840000e+00 -5.073864e-40
-7.830000e+00 -1.758681e-39
-7.820000e+00 -5.632756e-39
-7.810000e+00 -1.684953e-38
-7.800000e+00 -4.747503e-38
-7.790000e+00 -1.268571e-37
-7.780000e+00 -3.232680e-37
-7.770000e+00 -7.892727e-37
-7.760000e+00 -1.853561e-36
-7.750000e+00 -4.200966e-36
-7.740000e+00 -9.215059e-36
-7.730000e+00 -1.961248e-35
-7.720000e+00 -4.058794e-35
-7.710000e+00 -8.183171e-35
-7.700000e+00 -1.610065e-34
-7.690000e+00 -3.096130e-34
-7.680000e+00 -5.826898e-34
-7.670000e+00 -1.074553e-33
-7.660000e+00 -1.943878e-33
-7.650000e+00 -3.453003e-33
-7.640000e+00 -6.028476e-33
-7.630000e+00 -1.035291e-32
-7.620000e+00 -1.750230e-32
-7.610000e+00 -2.914803e-32
-7.600000e+00 -4.785050e-32
-7.590000e+00 -7.747948e-32
-7.580000e+00 -1.238083e-31
-7.570000e+00 -1.953432e-31
-7.560000e+00 -3.044657e-31
-7.550000e+00 -4.689881e-31
-7.540000e+00 -7.142449e-31
-7.530000e+00 -1.075872e-30
-7.520000e+00 -1.603454e-30
-7.510000e+00 -2.365265e-30
-7.500000e+00 -3.454337e-30
-7.490000e+00 -4.996158e-30
-7.480000e+00 -7.158329e-30
-7.470000e+00 -1.016248e-29
-7.460000e+00 -1.429889e-29
-7.450000e+00 -1.994407e-29
-7.440000e+00 -2.758175e-29
-7.430000e+00 -3.782748e-29
-7.420000e+00 -5.145720e-29
-7.410000e+00 -6.943955e-29
-7.400000e+00 -9.297222e-29
-7.390000e+00 -1.235216e-28
-7.380000e+00 -1.628654e-28
-7.370000e+00 -2.131363e-28
-7.360000e+00 -2.768663e-28
-7.350000e+00 -3.570291e-28
-7.340000e+00 -4.570758e-28
-7.330000e+00 -5.809633e-28
-7.320000e+00 -7.331698e-28
-7.310000e+00 -9.186887e-28
-7.300000e+00 -1.143004e-27
-7.290000e+00 -1.412024e-27
-7.280000e+00 -1.731983e-27
-7.270000e+00 -2.109296e-27
-7.260000e+00 -2.550345e-27
-7.250000e+00 -3.061213e-27
-7.240000e+00 -3.647339e-27
-7.230000e+00 -4.313089e-27
-7.220000e+00 -5.061237e-27
-7.210000e+00 -5.892374e-27
-7.200000e+00 -6.804207e-27
-7.190000e+00 -7.790794e-27
-7.180000e+00 -8.841669e-27
-7.170000e+00 -9.940969e-27
-7.160000e+00 -1.106647e-26
-7.150000e+00 -1.218865e-26
-7.140000e+00 -1.326982e-26
-7.130000e+00 -1.426328e-26
-7.120000e+00 -1.511270e-26
-7.110000e+00 -1.575170e-26
-7.100000e+00 -1.610374e-26
-7.090000e+00 -1.608238e-26
-7.080000e+00 -1.559213e-26
-7.070000e+00 -1.452969e-26
-7.060000e+00 -1.278606e-26
-7.050000e+00 -1.024932e-26
-7.040000e+00 -6.808231e-27
-7.030000e+00 -2.356749e-27
-7.020000e+00 3.200567e-27
-7.010000e+00 9.942226e-27
-7.000000e+00 1.792265e-26
-6.990000e+00 2.716425e-26
-6.980000e+00 3.764893e-26
-6.970000e+00 4.930917e-26
-6.960000e+00 6.201925e-26
-6.950000e+00 7.558635e-26
-6.940000e+00 8.974287e-26
-6.930000e+00 1.041397e-25
-6.920000e+00 1.183414e-25
-6.910000e+00 1.318236e-25
-6.900000e+00 1.439740e-25
-6.890000e+00 1.540963e-25
-6.880000e+00 1.614192e-25
-6.870000e+00 1.651097e-25
-6.860000e+00 1.642930e-25
-6.850000e+00 1.580761e-25
-6.840000e+00 1.455790e-25
-6.830000e+00 1.259717e-25
-6.820000e+00 9.851551e-26
-6.810000e+00 6.261008e-26
-6.800000e+00 1.784458e-26
-6.790000e+00 -3.594974e-26
-6.780000e+00 -9.864534e-26
-6.770000e+00 -1.697663e-25
-6.760000e+00 -2.484397e-25
-6.750000e+00 -3.333541e-25
-6.740000e+00 -4.227286e-25
-6.730000e+00 -5.142946e-25
-6.720000e+00 -6.052941e-25
-6.710000e+00 -6.924977e-25
-6.700000e+00 -7.722457e-25
-6.690000e+00 -8.405145e-25
-6.680000e+00 -8.930117e-25
-6.670000e+00 -9.252953e-25
-6.660000e+00 -9.329238e-25
-6.650000e+00 -9.116314e-25
-6.640000e+00 -8.575288e-25
-6.630000e+00 -7.673200e-25
-6.620000e+00 -6.385331e-25
-6.610000e+00 -4.697554e-25
-6.600000e+00 -2.608636e-25
-6.590000e+00 -1.323664e-26
-6.580000e+00 2.700582e-25
-6.570000e+00 5.841240e-25
-6.560000e+00 9.221477e-25
-6.550000e+00 1.275380e-24
-6.540000e+00 1.633209e-24
-6.530000e+00 1.983310e-24
-6.520000e+00 2.311917e-24
-6.510000e+00 2.604184e-24
-6.500000e+00 2.844669e-24
-6.490000e+00 3.017913e-24
-6.480000e+00 3.109125e-24
-6.470000e+00 3.104929e-24
-6.460000e+00 2.994183e-24
-6.450000e+00 2.768817e-24
-6.440000e+00 2.424660e-24
-6.430000e+00 1.962217e-24
-6.420000e+00 1.387333e-24
-6.410000e+00 7.117328e-25
-6.400000e+00 -4.667516e-26
-6.390000e+00 -8.637273e-25
-6.380000e+00 -1.709251e-24
-6.370000e+00 -2.547652e-24
-6.360000e+00 -3.338877e-24
-6.350000e+00 -4.039784e-24
-6.340000e+00 -4.605891e-24
-6.330000e+00 -4.993528e-24
-6.320000e+00 -5.162312e-24
-6.310000e+00 -5.077905e-24
-6.300000e+00 -4.714919e-24
-6.290000e+00 -4.059959e-24
-6.280000e+00 -3.114456e-24
-6.270000e+00 -1.897413e-24
-6.260000e+00 -4.475390e-25
-6.250000e+00 1.175128e-24
-6.240000e+00 2.888507e-24
-6.230000e+00 4.588778e-24
-6.220000e+00 6.151945e-24
-6.210000e+00 7.436750e-24
-6.200000e+00 8.289142e-24
-6.190000e+00 8.548326e-24
-6.180000e+00 8.054309e-24
-6.170000e+00 6.657080e-24
-6.160000e+00 4.226975e-24
-6.150000e+00 6.662268e-25
-6.140000e+00 -4.078928e-24
-6.130000e+00 -1.000584e-23
-6.120000e+00 -1.704348e-23
-6.110000e+00 -2.504153e-23
-6.100000e+00 -3.376131e-23
-6.090000e+00 -4.286920e-23
-6.080000e+00 -5.193383e-23
-6.070000e+00 -6.042716e-23
-6.060000e+00 -6.773109e-23
-6.050000e+00 -7.314945e-23
-6.040000e+00 -7.592659e-23
-6.030000e+00 -7.527247e-23
-6.020000e+00 -7.039463e-23
-6.010000e+00 -6.053646e-23
-6.000000e+00 -4.502181e-23
-5.990000e+00 -2.330451e-23
-5.980000e+00 4.978674e-24
-5.970000e+00 3.995281e-23
-5.960000e+00 8.144976e-23
-5.950000e+00 1.289563e-22
-5.940000e+00 1.815681e-22
-5.930000e+00 2.379522e-22
-5.920000e+00 2.963219e-22
-5.910000e+00 3.544283e-22
-5.900000e+00 4.095698e-22
-5.890000e+00 4.586246e-22
-5.880000e+00 4.981082e-22
-5.870000e+00 5.242573e-22
-5.860000e+00 5.331418e-22
-5.850000e+00 5.208076e-22
-5.840000e+00 4.834412e-22
-5.830000e+00 4.175668e-22
-5.820000e+00 3.202578e-22
-5.810000e+00 1.893671e-22
-5.800000e+00 2.376577e-23
-5.790000e+00 -1.764192e-22
-5.780000e+00 -4.095770e-22
-5.770000e+00 -6.724085e-22
-5.760000e+00 -9.597543e-22
-5.750000e+00 -1.264471e-21
-5.740000e+00 -1.577368e-21
-5.730000e+00 -1.887222e-21
-5.720000e+00 -2.180873e-21
-5.710000e+00 -2.443418e-21
-5.700000e+00 -2.658513e-21
-5.690000e+00 -2.808786e-21
-5.680000e+00 -2.876356e-21
-5.670000e+00 -2.843466e-21
-5.660000e+00 -2.693226e-21
-5.650000e+00 -2.410428e-21
-5.640000e+00 -1.982447e-21
-5.630000e+00 -1.400183e-21
-5.620000e+00 -6.590129e-22
-5.610000e+00 2.402652e-22
-5.600000e+00 1.290557e-21
-5.590000e+00 2.477701e-21
-5.580000e+00 3.779845e-21
-5.570000e+00 5.167024e-21
-5.560000e+00 6.601001e-21
-5.550000e+00 8.035370e-21
-5.540000e+00 9.416023e-21
-5.530000e+00 1.068199e-20
-5.520000e+00 1.176665e-20
-5.510000e+00 1.259934e-20
-5.500000e+00 1.310746e-20
-5.490000e+00 1.321881e-20
-5.480000e+00 1.286446e-20
-5.470000e+00 1.198179e-20
-5.460000e+00 1.051788e-20
-5.450000e+00 8.432879e-21
-5.440000e+00 5.703598e-21
-5.430000e+00 2.326866e-21
-5.420000e+00 -1.677278e-21
-5.410000e+00 -6.262845e-21
-5.400000e+00 -1.135563e-20
-5.390000e+00 -1.685173e-20
-5.380000e+00 -2.261690e-20
-5.370000e+00 -2.848692e-20
-5.360000e+00 -3.426914e-20
-5.350000e+00 -3.974532e-20
-5.340000e+00 -4.467566e-20
-5.330000e+00 -4.880438e-20
-5.320000e+00 -5.186650e-20
-5.310000e+00 -5.359605e-20
-5.300000e+00 -5.373536e-20
-5.290000e+00 -5.204542e-20
-5.280000e+00 -4.831683e-20
-5.270000e+00 -4.238164e-20
-5.260000e+00 -3.412468e-20
-5.250000e+00 -2.349520e-20
-5.240000e+00 -1.051743e-20
-5.230000e+00 4.699984e-21
-5.220000e+00 2.195623e-20
-5.210000e+00 4.095279e-20
-5.200000e+00 6.129059e-20
-5.190000e+00 8.247034e-20
-5.180000e+00 1.038963e-19
-5.170000e+00 1.248840e-19
-5.160000e+00 1.446714e-19
-5.150000e+00 1.624364e-19
-5.140000e+00 1.773146e-19
-5.130000e+00 1.884255e-19
-5.120000e+00 1.948982e-19
-5.110000e+00 1.959039e-19
-5.100000e+00 1.906877e-19
-5.090000e+00 1.786043e-19
-5.080000e+00 1.591530e-19
-5.070000e+00 1.320121e-19
-5.060000e+00 9.707271e-20
-5.050000e+00 5.446800e-20
-5.040000e+00 4.598721e-21
-5.030000e+00 -5.184764e-20
-5.020000e+00 -1.138847e-19
-5.010000e+00 -1.802235e-19
-5.000000e+00 -2.492797e-19
-4.990000e+00 -3.191887e-19
-4.980000e+00 -3.878352e-19
-4.970000e+00 -4.528920e-19
-4.960000e+00 -5.118712e-19
-4.950000e+00 -5.621864e-19
-4.940000e+00 -6.012251e-19
-4.930000e+00 -6.264307e-19
-4.920000e+00 -6.353909e-19
-4.910000e+00 -6.259317e-19
-4.900000e+00 -5.962136e-19
-4.890000e+00 -5.448273e-19
-4.880000e+00 -4.708893e-19
-4.870000e+00 -3.741219e-19
-4.860000e+00 -2.549344e-19
-4.850000e+00 -1.144791e-19
-4.840000e+00 4.530224e-20
-4.830000e+00 2.216577e-19
-4.820000e+00 4.110263e-19
-4.810000e+00 6.090643e-19
-4.800000e+00 8.107028e-19
-4.790000e+00 1.010228e-18
-4.780000e+00 1.201401e-18
-4.770000e+00 1.377592e-18
-4.760000e+00 1.531954e-18
-4.750000e+00 1.657612e-18
-4.740000e+00 1.747874e-18
-4.730000e+00 1.796461e-18
-4.720000e+00 1.797735e-18
-4.710000e+00 1.746944e-18
-4.700000e+00 1.640451e-18
-4.690000e+00 1.475951e-18
-4.680000e+00 1.252670e-18
-4.670000e+00 9.715332e-19
-4.660000e+00 6.352934e-19
-4.650000e+00 2.486142e-19
-4.640000e+00 -1.818982e-19
-4.630000e+00 -6.477201e-19
-4.620000e+00 -1.138502e-18
-4.610000e+00 -1.642224e-18
-4.600000e+00 -2.145409e-18
-4.590000e+00 -2.633422e-18
-4.580000e+00 -3.090802e-18
-4.570000e+00 -3.501671e-18
-4.560000e+00 -3.850187e-18
-4.550000e+00 -4.121014e-18
-4.540000e+00 -4.299857e-18
-4.530000e+00 -4.373961e-18
-4.520000e+00 -4.332635e-18
-4.510000e+00 -4.167741e-18
-4.500000e+00 -3.874161e-18
-4.490000e+00 -3.450163e-18
-4.480000e+00 -2.897751e-18
-4.470000e+00 -2.222868e-18
-4.460000e+00 -1.435536e-18
-4.450000e+00 -5.498476e-19
-4.440000e+00 4.161520e-19
-4.430000e+00 1.440723e-18
-4.420000e+00 2.498826e-18
-4.410000e+00 3.562646e-18
-4.400000e+00 4.602248e-18
-4.390000e+00 5.586345e-18
-4.380000e+00 6.483165e-18
-4.370000e+00 7.261382e-18
-4.360000e+00 7.891138e-18
-4.350000e+00 8.345061e-18
-4.340000e+00 8.599265e-18
-4.330000e+00 8.634335e-18
-4.320000e+00 8.436253e-18
-4.310000e+00 7.997141e-18
-4.300000e+00 7.315958e-18
-4.290000e+00 6.398938e-18
-4.280000e+00 5.259887e-18
-4.270000e+00 3.920205e-18
-4.260000e+00 2.408680e-18
-4.250000e+00 7.610546e-19
-4.240000e+00 -9.807115e-19
-4.230000e+00 -2.769405e-18
-4.220000e+00 -4.553764e-18
-4.210000e+00 -6.279906e-18
-4.200000e+00 -7.892927e-18
-4.190000e+00 -9.338652e-18
-4.180000e+00 -1.056548e-17
-4.170000e+00 -1.152623e-17
-4.160000e+00 -1.218007e-17
-4.150000e+00 -1.249416e-17
-4.140000e+00 -1.244538e-17
-4.130000e+00 -1.202165e-17
-4.120000e+00 -1.122304e-17
-4.110000e+00 -1.006252e-17
-4.100000e+00 -8.566379e-18
-4.090000e+00 -6.774066e-18
-4.080000e+00 -4.737699e-18
-4.070000e+00 -2.521054e-18
-4.060000e+00 -1.980052e-19
-4.050000e+00 2.149411e-18
-4.040000e+00 4.433409e-18
-4.030000e+00 6.563261e-18
-4.020000e+00 8.448425e-18
-4.010000e+00 1.000185e-17
-4.000000e+00 1.114349e-17
-3.990000e+00 1.180380e-17
-3.980000e+00 1.192714e-17
-3.970000e+00 1.147495e-17
-3.960000e+00 1.042864e-17
-3.950000e+00 8.791868e-18
-3.940000e+00 6.592321e-18
-3.930000e+00 3.882768e-18
-3.920000e+00 7.412715e-19
-3.910000e+00 -2.729424e-18
-3.900000e+00 -6.403571e-18
-3.890000e+00 -1.013489e-17
-3.880000e+00 -1.376011e-17
-3.870000e+00 -1.710343e-17
-3.860000e+00 -1.998177e-17
-3.850000e+00 -2.221079e-17
-3.840000e+00 -2.361154e-17
-3.830000e+00 -2.401752e-17
-3.820000e+00 -2.328195e-17
-3.810000e+00 -2.128520e-17
-3.800000e+00 -1.794148e-17
-3.790000e+00 -1.320596e-17
-3.780000e+00 -7.080112e-18
-3.770000e+00 3.832461e-19
-3.760000e+00 9.076403e-18
-3.750000e+00 1.883491e-17
-3.740000e+00 2.943704e-17
-3.730000e+00 4.060538e-17
-3.720000e+00 5.201033e-17
-3.710000e+00 6.327570e-17
-3.700000e+00 7.398619e-17
-3.690000e+00 8.369708e-17
-3.680000e+00 9.194564e-17
-3.670000e+00 9.826438e-17
-3.660000e+00 1.021956e-16
-3.650000e+00 1.033068e-16
-3.640000e+00 1.012077e-16
-3.630000e+00 9.556614e-17
-3.620000e+00 8.612513e-17
-3.610000e+00 7.271822e-17
-3.600000e+00 5.528394e-17
-3.590000e+00 3.387847e-17
-3.580000e+00 8.685800e-18
-3.570000e+00 -1.997447e-17
-3.560000e+00 -5.164396e-17
-3.550000e+00 -8.572507e-17
-3.540000e+00 -1.214843e-16
-3.530000e+00 -1.580608e-16
-3.520000e+00 -1.944800e-16
-3.510000e+00 -2.296690e-16
-3.500000e+00 -2.624801e-16
-3.490000e+00 -2.917155e-16
-3.480000e+00 -3.161575e-16
-3.470000e+00 -3.346006e-16
-3.460000e+00 -3.458880e-16
-3.450000e+00 -3.489488e-16
-3.440000e+00 -3.428353e-16
-3.430000e+00 -3.267630e-16
-3.420000e+00 -3.001461e-16
-3.410000e+00 -2.626336e-16
-3.400000e+00 -2.141402e-16
-3.390000e+00 -1.548739e-16
-3.380000e+00 -8.535763e-17
-3.370000e+00 -6.442579e-18
-3.360000e+00 8.068265e-17
-3.350000e+00 1.744955e-16
-3.340000e+00 2.731495e-16
-3.330000e+00 3.744941e-16
-3.320000e+00 4.761054e-16
-3.310000e+00 5.753273e-16
-3.300000e+00 6.693190e-16
-3.290000e+00 7.551175e-16
-3.280000e+00 8.297038e-16
-3.270000e+00 8.900773e-16
-3.260000e+00 9.333377e-16
-3.250000e+00 9.567709e-16
-3.240000e+00 9.579365e-16
-3.230000e+00 9.347557e-16
-3.220000e+00 8.855977e-16
-3.210000e+00 8.093656e-16
-3.200000e+00 7.055678e-16
-3.190000e+00 5.743842e-16
-3.180000e+00 4.167261e-16
-3.170000e+00 2.342700e-16
-3.160000e+00 2.948770e-17
-3.150000e+00 -1.943525e-16
-3.140000e+00 -4.331990e-16
-3.130000e+00 -6.822511e-16
-3.120000e+00 -9.360203e-16
-3.110000e+00 -1.188410e-15
-3.100000e+00 -1.432821e-15
-3.090000e+00 -1.662273e-15
-3.080000e+00 -1.869561e-15
-3.070000e+00 -2.047412e-15
-3.060000e+00 -2.188672e-15
-3.050000e+00 -2.286502e-15
-3.040000e+00 -2.334578e-15
-3.030000e+00 -2.327305e-15
-3.020000e+00 -2.260021e-15
-3.010000e+00 -2.129209e-15
-3.000000e+00 -1.932680e-15
-2.990000e+00 -1.669753e-15
-2.980000e+00 -1.341408e-15
-2.970000e+00 -9.504036e-16
-2.960000e+00 -5.013756e-16
-2.950000e+00 -8.729438e-19
-2.940000e+00 5.426343e-16
-2.930000e+00 1.118805e-15
-2.920000e+00 1.715518e-15
-2.910000e+00 2.319039e-15
-2.900000e+00 2.914229e-15
-2.890000e+00 3.484807e-15
-2.880000e+00 4.013669e-15
-2.870000e+00 4.483267e-15
-2.860000e+00 4.876027e-15
-2.850000e+00 5.174808e-15
-2.840000e+00 5.363378e-15
-2.830000e+00 5.426927e-15
-2.820000e+00 5.352607e-15
-2.810000e+00 5.130022e-15
-2.800000e+00 4.751749e-15
-2.790000e+00 4.213781e-15
-2.780000e+00 3.515985e-15
-2.770000e+00 2.662443e-15
-2.760000e+00 1.661722e-15
-2.750000e+00 5.270999e-16
-2.740000e+00 -7.233669e-16
-2.730000e+00 -2.066898e-15
-2.720000e+00 -3.476104e-15
-2.710000e+00 -4.919301e-15
-2.700000e+00 -6.361001e-15
-2.690000e+00 -7.762395e-15
-2.680000e+00 -9.082165e-15
-2.670000e+00 -1.027731e-14
-2.660000e+00 -1.130412e-14
-2.650000e+00 -1.211930e-14
-2.640000e+00 -1.268114e-14
-2.630000e+00 -1.295081e-14
-2.620000e+00 -1.289362e-14
-2.610000e+00 -1.248037e-14
-2.600000e+00 -1.168862e-14
-2.590000e+00 -1.050397e-14
-2.580000e+00 -8.921169e-15
-2.570000e+00 -6.945158e-15
-2.560000e+00 -4.591797e-15
-2.550000e+00 -1.888627e-15
-2.540000e+00 1.124878e-15
-2.530000e+00 4.397192e-15
-2.520000e+00 7.864962e-15
-2.510000e+00 1.145365e-14
-2.500000e+00 1.507832e-14
-2.490000e+00 1.864515e-14
-2.480000e+00 2.205288e-14
-2.470000e+00 2.519490e-14
-2.460000e+00 2.796162e-14
-2.450000e+00 3.024304e-14
-2.440000e+00 3.193170e-14
-2.430000e+00 3.292572e-14
-2.420000e+00 3.313206e-14
-2.410000e+00 3.246983e-14
-2.400000e+00 3.087354e-14
-2.390000e+00 2.829631e-14
-2.380000e+00 2.471279e-14
-2.370000e+00 2.012187e-14
-2.360000e+00 1.454895e-14
-2.350000e+00 8.047724e-15
-2.340000e+00 7.013883e-16
-2.330000e+00 -7.376880e-15
-2.320000e+00 -1.604414e-14
-2.310000e+00 -2.512869e-14
-2.300000e+00 -3.443194e-14
-2.290000e+00 -4.373126e-14
-2.280000e+00 -5.278346e-14
-2.270000e+00 -6.132954e-14
-2.260000e+00 -6.909976e-14
-2.250000e+00 -7.581999e-14
-2.240000e+00 -8.121830e-14
-2.230000e+00 -8.503220e-14
-2.220000e+00 -8.701647e-14
-2.210000e+00 -8.695100e-14
-2.200000e+00 -8.464879e-14
-2.190000e+00 -7.996350e-14
-2.180000e+00 -7.279712e-14
-2.170000e+00 -6.310671e-14
-2.160000e+00 -5.091001e-14
-2.150000e+00 -3.629065e-14
-2.140000e+00 -1.940157e-14
-2.130000e+00 -4.670808e-16
-2.120000e+00 2.021675e-14
-2.110000e+00 4.228345e-14
-2.100000e+00 6.529964e-14
-2.090000e+00 8.877010e-14
-2.080000e+00 1.121457e-13
-2.070000e+00 1.348322e-13
-2.060000e+00 1.562022e-13
-2.050000e+00 1.756079e-13
-2.040000e+00 1.923957e-13
-2.030000e+00 2.059229e-13
-2.020000e+00 2.155741e-13
-2.010000e+00 2.207795e-13
-2.000000e+00 2.210330e-13
-1.990000e+00 2.159097e-13
-1.980000e+00 2.050836e-13
-1.970000e+00 1.883434e-13
-1.960000e+00 1.656076e-13
-1.950000e+00 1.369361e-13
-1.940000e+00 1.025405e-13
-1.930000e+00 6.279082e-14
-1.920000e+00 1.821828e-14
-1.910000e+00 -3.048489e-14
-1.900000e+00 -8.247038e-14
-1.890000e+00 -1.367422e-13
-1.880000e+00 -1.921712e-13
-1.870000e+00 -2.475114e-13
-1.860000e+00 -3.014228e-13
-1.850000e+00 -3.524974e-13
-1.840000e+00 -3.992874e-13
-1.830000e+00 -4.403404e-13
-1.820000e+00 -4.742323e-13
-1.810000e+00 -4.996052e-13
-1.800000e+00 -5.152066e-13
-1.790000e+00 -5.199268e-13
-1.780000e+00 -5.128353e-13
-1.770000e+00 -4.932193e-13
-1.760000e+00 -4.606143e-13
-1.750000e+00 -4.148346e-13
-1.740000e+00 -3.559965e-13
-1.730000e+00 -2.845383e-13
-1.720000e+00 -2.012307e-13
-1.710000e+00 -1.071823e-13
-1.700000e+00 -3.836220e-15
-1.690000e+00 1.070428e-13
-1.680000e+00 2.233873e-13
-1.670000e+00 3.428581e-13
-1.660000e+00 4.628814e-13
-1.650000e+00 5.806958e-13
-1.640000e+00 6.934045e-13
-1.630000e+00 7.980387e-13
-1.620000e+00 8.916218e-13
-1.610000e+00 9.712423e-13
-1.600000e+00 1.034126e-12
-1.590000e+00 1.077712e-12
-1.580000e+00 1.099731e-12
-1.570000e+00 1.098270e-12
-1.560000e+00 1.071852e-12
-1.550000e+00 1.019489e-12
-1.540000e+00 9.407401e-13
-1.530000e+00 8.357577e-13
-1.520000e+00 7.053170e-13
-1.510000e+00 5.508387e-13
-1.500000e+00 3.743922e-13
-1.490000e+00 1.786876e-13
-1.480000e+00 -3.295271e-14
-1.470000e+00 -2.566337e-13
-1.460000e+00 -4.879499e-13
-1.450000e+00 -7.220563e-13
-1.440000e+00 -9.537606e-13
-1.430000e+00 -1.177624e-12
-1.420000e+00 -1.388081e-12
-1.410000e+00 -1.579557e-12
-1.400000e+00 -1.746607e-12
-1.390000e+00 -1.884049e-12
-1.380000e+00 -1.987102e-12
-1.370000e+00 -2.051521e-12
-1.360000e+00 -2.073731e-12
-1.350000e+00 -2.050945e-12
-1.340000e+00 -1.981275e-12
-1.330000e+00 -1.863825e-12
-1.320000e+00 -1.698767e-12
-1.310000e+00 -1.487395e-12
-1.300000e+00 -1.232149e-12
-1.290000e+00 -9.366230e-13
-1.280000e+00 -6.055391e-13
-1.270000e+00 -2.446919e-13
-1.260000e+00 1.391312e-13
-1.250000e+00 5.382625e-13
-1.240000e+00 9.442907e-13
-1.230000e+00 1.348223e-12
-1.220000e+00 1.740672e-12
-1.210000e+00 2.112058e-12
-1.200000e+00 2.452831e-12
-1.190000e+00 2.753699e-12
-1.180000e+00 3.005867e-12
-1.170000e+00 3.201265e-12
-1.160000e+00 3.332786e-12
-1.150000e+00 3.394500e-12
-1.140000e+00 3.381856e-12
-1.130000e+00 3.291858e-12
-1.120000e+00 3.123212e-12
-1.110000e+00 2.876447e-12
-1.100000e+00 2.553976e-12
-1.090000e+00 2.160146e-12
-1.080000e+00 1.701211e-12
-1.070000e+00 1.185283e-12
-1.060000e+00 6.222133e-13
-1.050000e+00 2.344755e-14
-1.040000e+00 -5.981862e-13
-1.030000e+00 -1.228720e-12
-1.020000e+00 -1.853335e-12
-1.010000e+00 -2.456683e-12
-1.000000e+00 -3.023237e-12
-9.900002e-01 -3.537665e-12
-9.800000e-01 -3.985217e-12
-9.700003e-01 -4.352120e-12
-9.600000e-01 -4.625948e-12
-9.500003e-01 -4.796026e-12
-9.400001e-01 -4.853753e-12
-9.300003e-01 -4.792918e-12
-9.200001e-01 -4.609989e-12
-9.100003e-01 -4.304315e-12
-9.000001e-01 -3.878295e-12
-8.900003e-01 -3.337462e-12
-8.800001e-01 -2.690511e-12
-8.700004e-01 -1.949235e-12
-8.600001e-01 -1.128390e-12
-8.500004e-01 -2.454758e-13
-8.400002e-01 6.795570e-13
-8.299999e-01 1.624686e-12
-8.200002e-01 2.566248e-12
-8.099999e-01 3.479451e-12
-8.000002e-01 4.338938e-12
-7.900000e-01 5.119388e-12
-7.800002e-01 5.796125e-12
-7.700000e-01 6.345823e-12
-7.600002e-01 6.747083e-12
-7.500000e-01 6.981150e-12
-7.400002e-01 7.032461e-12
-7.300000e-01 6.889246e-12
-7.200003e-01 6.543997e-12
-7.100000e-01 5.993912e-12
-7.000003e-01 5.241235e-12
-6.900001e-01 4.293451e-12
-6.800003e-01 3.163422e-12
-6.700001e-01 1.869387e-12
-6.600003e-01 4.347840e-13
-6.500001e-01 -1.111982e-12
-6.400003e-01 -2.737975e-12
-6.300001e-01 -4.406251e-12
-6.200004e-01 -6.076517e-12
-6.100001e-01 -7.705923e-12
-6.000004e-01 -9.249912e-12
-5.900002e-01 -1.066322e-11
-5.800004e-01 -1.190088e-11
-5.700002e-01 -1.291934e-11
-5.599999e-01 -1.367754e-11
-5.500002e-01 -1.413804e-11
-5.400000e-01 -1.426810e-11
-5.300002e-01 -1.404073e-11
-5.200000e-01 -1.343562e-11
-5.100002e-01 -1.244004e-11
-5.000000e-01 -1.104956e-11
-4.900002e-01 -9.268592e-12
-4.800000e-01 -7.110820e-12
-4.700003e-01 -4.599469e-12
-4.600000e-01 -1.767262e-12
-4.500003e-01 1.343741e-12
-4.400001e-01 4.682541e-12
-4.300003e-01 8.189850e-12
-4.200001e-01 1.179892e-11
-4.100003e-01 1.543657e-11
-4.000001e-01 1.902445e-11
-3.900003e-01 2.248047e-11
-3.800001e-01 2.572030e-11
-3.700004e-01 2.865909e-11
-3.600001e-01 3.121328e-11
-3.500004e-01 3.330236e-11
-3.400002e-01 3.485076e-11
-3.300004e-01 3.578968e-11
-3.200002e-01 3.605884e-11
-3.099999e-01 3.560822e-11
-3.000002e-01 3.439949e-11
-2.900000e-01 3.240736e-11
-2.800002e-01 2.962089e-11
-2.700000e-01 2.604417e-11
-2.600002e-01 2.169702e-11
-2.500000e-01 1.661543e-11
-2.400002e-01 1.085129e-11
-2.300000e-01 4.472425e-12
-2.200003e-01 -2.438329e-12
-2.100000e-01 -9.783933e-12
-2.000003e-01 -1.745453e-11
-1.900001e-01 -2.532891e-11
-1.800003e-01 -3.327651e-11
-1.700001e-01 -4.115939e-11
-1.600003e-01 -4.883458e-11
-1.500001e-01 -5.615662e-11
-1.400003e-01 -6.298000e-11
-1.300001e-01 -6.916204e-11
-1.200004e-01 -7.456537e-11
-1.100001e-01 -7.906058e-11
-1.000004e-01 -8.252895e-11
-9.000015e-02 -8.486458e-11
-8.000040e-02 -8.597684e-11
-7.000017e-02 -8.579214e-11
-5.999994e-02 -8.425553e-11
-5.000019e-02 -8.133230e-11
-3.999996e-02 -7.700872e-11
-3.000021e-02 -7.129264e-11
-1.999998e-02 -6.421373e-11
-1.000023e-02 -5.582325e-11
0.000000e+00 -4.619335e-11
1.000023e-02 -3.541618e-11
1.999950e-02 -2.360235e-11
2.999973e-02 -1.087933e-11
3.999996e-02 2.610652e-12
5.000019e-02 1.671289e-11
5.999947e-02 3.126269e-11
6.999969e-02 4.608791e-11
7.999992e-02 6.101187e-11
9.000015e-02 7.585595e-11
9.999943e-02 9.044233e-11
1.099997e-01 1.045966e-10
1.199999e-01 1.181502e-10
1.300001e-01 1.309424e-10
1.399994e-01 1.428226e-10
1.499996e-01 1.536515e-10
1.599998e-01 1.633030e-10
1.700001e-01 1.716642e-10
1.799994e-01 1.786364e-10
1.899996e-01 1.841351e-10
1.999998e-01 1.880893e-10
2.100000e-01 1.904417e-10
2.200003e-01 1.911463e-10
2.299995e-01 1.901682e-10
2.399998e-01 1.874815e-10
2.500000e-01 1.830673e-10
2.600002e-01 1.769123e-10
2.699995e-01 1.690068e-10
2.799997e-01 1.593426e-10
2.900000e-01 1.479113e-10
3.000002e-01 1.347028e-10
3.099995e-01 1.197047e-10
3.199997e-01 1.029004e-10
3.299999e-01 8.426993e-11
3.400002e-01 6.378929e-11
3.499994e-01 4.143164e-11
3.599997e-01 1.716857e-11
3.699999e-01 -9.027892e-12
3.800001e-01 -3.718230e-11
3.899994e-01 -6.731293e-11
3.999996e-01 -9.942765e-11
4.099998e-01 -1.335196e-10
4.200001e-01 -1.695617e-10
4.299994e-01 -2.075019e-10
4.399996e-01 -2.472578e-10
4.499998e-01 -2.887096e-10
4.600000e-01 -3.316957e-10
4.700003e-01 -3.760060e-10
4.799995e-01 -4.213768e-10
4.899998e-01 -4.674860e-10
5.000000e-01 -5.139481e-10
5.100002e-01 -5.603117e-10
5.199995e-01 -6.060547e-10
5.299997e-01 -6.505851e-10
5.400000e-01 -6.932387e-10
5.500002e-01 -7.332820e-10
5.599995e-01 -7.699118e-10
5.699997e-01 -8.022623e-10
5.799999e-01 -8.294090e-10
5.900002e-01 -8.503756e-10
5.999994e-01 -8.641449e-10
6.099997e-01 -8.696670e-10
6.199999e-01 -8.658742e-10
6.300001e-01 -8.516924e-10
6.399994e-01 -8.260577e-10
6.499996e-01 -7.879341e-10
6.599998e-01 -7.363272e-10
6.700001e-01 -6.703094e-10
6.799994e-01 -5.890318e-10
6.899996e-01 -4.917519e-10
6.999998e-01 -3.778480e-10
7.100000e-01 -2.468432e-10
7.200003e-01 -9.842333e-11
7.299995e-01 6.753970e-11
7.399998e-01 2.509724e-10
7.500000e-01 4.515805e-10
7.600002e-01 6.688294e-10
7.699995e-01 9.019317e-10
7.799997e-01 1.149830e-09
7.900000e-01 1.411186e-09
8.000002e-01 1.684371e-09
8.099995e-01 1.967455e-09
8.199997e-01 2.258200e-09
8.299999e-01 2.554059e-09
8.400002e-01 2.852170e-09
8.499994e-01 3.149361e-09
8.599997e-01 3.442144e-09
8.699999e-01 3.726727e-09
8.800001e-01 3.999021e-09
8.899994e-01 4.254638e-09
8.999996e-01 4.488919e-09
9.099998e-01 4.696923e-09
9.200001e-01 4.873467e-09
9.299994e-01 5.013118e-09
9.399996e-01 5.110223e-09
9.499998e-01 5.158920e-09
9.600000e-01 5.153162e-09
9.700003e-01 5.086729e-09
9.799995e-01 4.953260e-09
9.899998e-01 4.746249e-09
1.000000e+00 4.459110e-09
1.010000e+00 4.085141e-09
1.020000e+00 3.617605e-09
1.030000e+00 3.049696e-09
1.040000e+00 2.374611e-09
1.050000e+00 1.585541e-09
1.059999e+00 6.757079e-10
1.070000e+00 -3.616283e-10
1.080000e+00 -1.533128e-09
1.090000e+00 -2.845347e-09
1.099999e+00 -4.304746e-09
1.110000e+00 -5.917620e-09
1.120000e+00 -7.690120e-09
1.130000e+00 -9.628175e-09
1.139999e+00 -1.173753e-08
1.150000e+00 -1.402369e-08
1.160000e+00 -1.649189e-08
1.170000e+00 -1.914711e-08
1.179999e+00 -2.199396e-08
1.190000e+00 -2.503678e-08
1.200000e+00 -2.827954e-08
1.210000e+00 -3.172584e-08
1.220000e+00 -3.537890e-08
1.230000e+00 -3.924149e-08
1.240000e+00 -4.331605e-08
1.250000e+00 -4.760445e-08
1.260000e+00 -5.210825e-08
1.270000e+00 -5.682851e-08
1.280000e+00 -6.176576e-08
1.290000e+00 -6.692019e-08
1.300000e+00 -7.229147e-08
1.309999e+00 -7.787883e-08
1.320000e+00 -8.368102e-08
1.330000e+00 -8.969651e-08
1.340000e+00 -9.592324e-08
1.349999e+00 -1.023588e-07
1.360000e+00 -1.090005e-07
1.370000e+00 -1.158454e-07
1.380000e+00 -1.228902e-07
1.389999e+00 -1.301312e-07
1.400000e+00 -1.375650e-07
1.410000e+00 -1.451878e-07
1.420000e+00 -1.529958e-07
1.429999e+00 -1.609852e-07
1.440000e+00 -1.691522e-07
1.450000e+00 -1.774934e-07
1.460000e+00 -1.860055e-07
1.469999e+00 -1.946853e-07
1.480000e+00 -2.035303e-07
1.490000e+00 -2.125381e-07
1.500000e+00 -2.217071e-07
1.510000e+00 -2.310359e-07
1.520000e+00 -2.405243e-07
1.530000e+00 -2.501720e-07
1.540000e+00 -2.599803e-07
1.550000e+00 -2.699506e-07
1.559999e+00 -2.800855e-07
1.570000e+00 -2.903886e-07
1.580000e+00 -3.008641e-07
1.590000e+00 -3.115173e-07
1.599999e+00 -3.223545e-07
1.610000e+00 -3.333832e-07
1.620000e+00 -3.446112e-07
1.630000e+00 -3.560482e-07
1.639999e+00 -3.677043e-07
1.650000e+00 -3.795907e-07
1.660000e+00 -3.917198e-07
1.670000e+00 -4.041046e-07
1.679999e+00 -4.167591e-07
1.690000e+00 -4.296986e-07
1.700000e+00 -4.429386e-07
1.710000e+00 -4.564957e-07
1.719999e+00 -4.703872e-07
1.730000e+00 -4.846315e-07
1.740000e+00 -4.992465e-07
1.750000e+00 -5.142520e-07
1.760000e+00 -5.296677e-07
1.770000e+00 -5.455142e-07
1.780000e+00 -5.618112e-07
1.790000e+00 -5.785812e-07
1.800000e+00 -5.958445e-07
1.809999e+00 -6.136235e-07
1.820000e+00 -6.319402e-07
1.830000e+00 -6.508162e-07
1.840000e+00 -6.702745e-07
1.849999e+00 -6.903370e-07
1.860000e+00 -7.110270e-07
1.870000e+00 -7.323667e-07
1.880000e+00 -7.543794e-07
1.889999e+00 -7.770871e-07
1.900000e+00 -8.005135e-07
1.910000e+00 -8.246810e-07
1.920000e+00 -8.496129e-07
1.929999e+00 -8.753318e-07
1.940000e+00 -9.018608e-07
1.950000e+00 -9.292229e-07
1.960000e+00 -9.574408e-07
1.969999e+00 -9.865383e-07
1.980000e+00 -1.016538e-06
1.990000e+00 -1.047464e-06
2.000000e+00 -1.079339e-06
2.010000e+00 -1.112187e-06
2.020000e+00 -1.146031e-06
2.030000e+00 -1.180893e-06
2.040000e+00 -1.216801e-06
2.050000e+00 -1.253778e-06
2.059999e+00 -1.291846e-06
2.070000e+00 -1.331032e-06
2.080000e+00 -1.371360e-06
2.090000e+00 -1.412856e-06
2.099999e+00 -1.455546e-06
2.110000e+00 -1.499457e-06
2.120000e+00 -1.544613e-06
2.130000e+00 -1.591044e-06
2.139999e+00 -1.638775e-06
2.150000e+00 -1.687836e-06
2.160000e+00 -1.738255e-06
2.170000e+00 -1.790062e-06
2.179999e+00 -1.843287e-06
2.190000e+00 -1.897960e-06
2.200000e+00 -1.954112e-06
2.210000e+00 -2.011779e-06
2.219999e+00 -2.070992e-06
2.230000e+00 -2.131783e-06
2.240000e+00 -2.194189e-06
2.250000e+00 -2.258247e-06
2.260000e+00 -2.323995e-06
2.270000e+00 -2.391467e-06
2.280000e+00 -2.460707e-06
2.290000e+00 -2.531754e-06
2.300000e+00 -2.604650e-06
2.309999e+00 -2.679438e-06
2.320000e+00 -2.756163e-06
2.330000e+00 -2.834872e-06
2.340000e+00 -2.915610e-06
2.349999e+00 -2.998428e-06
2.360000e+00 -3.083377e-06
2.370000e+00 -3.170508e-06
2.380000e+00 -3.259877e-06
2.389999e+00 -3.351537e-06
2.400000e+00 -3.445546e-06
2.410000e+00 -3.541966e-06
2.420000e+00 -3.640854e-06
2.429999e+00 -3.742275e-06
2.440000e+00 -3.846294e-06
2.450000e+00 -3.952976e-06
2.460000e+00 -4.062391e-06
2.469999e+00 -4.174605e-06
2.480000e+00 -4.289700e-06
2.490000e+00 -4.407736e-06
2.500000e+00 -4.528800e-06
2.510000e+00 -4.652971e-06
2.520000e+00 -4.780319e-06
2.530000e+00 -4.910936e-06
2.540000e+00 -5.044902e-06
2.550000e+00 -5.182300e-06
2.559999e+00 -5.323220e-06
2.570000e+00 -5.467751e-06
2.580000e+00 -5.615986e-06
2.590000e+00 -5.768016e-06
2.599999e+00 -5.923936e-06
2.610000e+00 -6.083842e-06
2.620000e+00 -6.247834e-06
2.630000e+00 -6.416010e-06
2.639999e+00 -6.588468e-06
2.650000e+00 -6.765319e-06
2.660000e+00 -6.946660e-06
2.670000e+00 -7.132600e-06
2.679999e+00 -7.323243e-06
2.690000e+00 -7.518700e-06
2.700000e+00 -7.719080e-06
2.710000e+00 -7.924496e-06
2.719999e+00 -8.135058e-06
2.730000e+00 -8.350879e-06
2.740000e+00 -8.572076e-06
2.750000e+00 -8.798765e-06
2.760000e+00 -9.031060e-06
2.770000e+00 -9.269083e-06
2.780000e+00 -9.512954e-06
2.790000e+00 -9.762797e-06
2.800000e+00 -1.001873e-05
2.809999e+00 -1.028087e-05
2.820000e+00 -1.054936e-05
2.830000e+00 -1.082432e-05
2.840000e+00 -1.110588e-05
2.849999e+00 -1.139417e-05
2.860000e+00 -1.168932e-05
2.870000e+00 -1.199146e-05
2.880000e+00 -1.230074e-05
2.889999e+00 -1.261730e-05
2.900000e+00 -1.294128e-05
2.910000e+00 -1.327282e-05
2.920000e+00 -1.361206e-05
2.929999e+00 -1.395918e-05
2.940000e+00 -1.431431e-05
2.950000e+00 -1.467761e-05
2.960000e+00 -1.504925e-05