-8.000000e+00 0.000000e+00
-7.950000e+00 0.000000e+00
-7.900000e+00 0.000000e+00
-7.850000e+00 0.000000e+00
-7.800000e+00 0.000000e+00
-7.750000e+00 0.000000e+00
-7.700000e+00 0.000000e+00
-7.650000e+00 -3.078931e-25
-7.600000e+00 -2.573562e-23
-7.550000e+00 -2.967904e-22
-7.500000e+00 -1.776143e-21
-7.450000e+00 -6.940472e-21
-7.400000e+00 -1.909792e-20
-7.350000e+00 -3.675304e-20
-7.300000e+00 -4.205672e-20
-7.250000e+00 4.665821e-21
-7.200000e+00 1.345440e-19
-7.150000e+00 2.850240e-19
-7.100000e+00 2.245725e-19
-7.050000e+00 -3.243454e-19
-7.000000e+00 -1.214584e-18
-6.950000e+00 -1.361950e-18
-6.900000e+00 8.157018e-19
-6.850000e+00 5.149950e-18
-6.800000e+00 6.972407e-18
-6.750000e+00 -1.566798e-18
-6.700000e+00 -2.191277e-17
-6.650000e+00 -3.610405e-17
-6.600000e+00 -8.986575e-18
-6.550000e+00 7.579022e-17
-6.500000e+00 1.606626e-16
-6.450000e+00 1.074218e-16
-6.400000e+00 -1.861888e-16
-6.350000e+00 -5.785612e-16
-6.300000e+00 -6.015654e-16
-6.250000e+00 2.219231e-16
-6.200000e+00 1.684498e-15
-6.150000e+00 2.434963e-15
-6.100000e+00 6.628759e-16
-6.050000e+00 -3.872558e-15
-6.000000e+00 -7.947814e-15
-5.950000e+00 -5.802525e-15
-5.900000e+00 5.755265e-15
-5.850000e+00 2.099425e-14
-5.800000e+00 2.465202e-14
-5.750000e+00 2.516371e-15
-5.700000e+00 -4.090350e-14
-5.650000e+00 -7.332925e-14
-5.600000e+00 -5.102871e-14
-5.550000e+00 4.077139e-14
-5.500000e+00 1.529298e-13
-5.450000e+00 1.847129e-13
-5.400000e+00 5.788711e-14
-5.350000e+00 -1.917557e-13
-5.300000e+00 -3.919907e-13
-5.250000e+00 -3.380141e-13
-5.200000e+00 2.500944e-14
-5.150000e+00 4.911384e-13
-5.100000e+00 6.948012e-13
-5.050000e+00 4.022533e-13
-5.000000e+00 -2.328880e-13
-4.950000e+00 -7.220148e-13
-4.900000e+00 -6.475510e-13
-4.850000e+00 -1.064747e-13
-4.800000e+00 2.816030e-13
-4.750000e+00 -2.969616e-14
-4.700000e+00 -7.652664e-13
-4.650000e+00 -7.581529e-13
-4.600000e+00 1.007221e-12
-4.550000e+00 3.884079e-12
-4.500000e+00 5.119473e-12
-4.450000e+00 1.638412e-12
-4.400000e+00 -6.624243e-12
-4.350000e+00 -1.457710e-11
-4.300000e+00 -1.396635e-11
-4.250000e+00 2.268014e-13
-4.200000e+00 2.297912e-11
-4.150000e+00 3.836854e-11
-4.100000e+00 2.843109e-11
-4.050000e+00 -1.172303e-11
-4.000000e+00 -6.313980e-11
-3.950000e+00 -8.791171e-11
-3.900000e+00 -5.227831e-11
-3.850000e+00 4.374620e-11
-3.800000e+00 1.517172e-10
-3.750000e+00 1.925398e-10
-3.700000e+00 1.049759e-10
-3.650000e+00 -1.010118e-10
-3.600000e+00 -3.242927e-10
-3.550000e+00 -4.119905e-10
-3.500000e+00 -2.494553e-10
-3.450000e+00 1.467832e-10
-3.400000e+00 5.968457e-10
-3.350000e+00 8.261168e-10
-3.300000e+00 6.168792e-10
-3.250000e+00 -3.553781e-11
-3.200000e+00 -8.635460e-10
-3.150000e+00 -1.426675e-09
-3.100000e+00 -1.340941e-09
-3.050000e+00 -5.187403e-10
-3.000000e+00 7.300497e-10
-2.950000e+00 1.821271e-09
-2.900000e+00 2.197793e-09
-2.850000e+00 1.641373e-09
-2.800000e+00 4.014684e-10
-2.750000e+00 -9.515179e-10
-2.700000e+00 -1.866542e-09
-2.650000e+00 -2.128978e-09
-2.600000e+00 -1.941501e-09
-2.550000e+00 -1.708103e-09
-2.500000e+00 -1.665008e-09
-2.450000e+00 -1.617128e-09
-2.400000e+00 -9.779538e-10
-2.350000e+00 8.885372e-10
-2.300000e+00 4.224809e-09
-2.250000e+00 8.595734e-09
-2.200000e+00 1.290610e-08
-2.150000e+00 1.566116e-08
-2.100000e+00 1.527806e-08
-2.050000e+00 1.027992e-08
-2.000000e+00 -6.520105e-10
-1.950000e+00 -1.865824e-08
-1.900000e+00 -4.458924e-08
-1.850000e+00 -7.878821e-08
-1.800000e+00 -1.208885e-07
-1.750000e+00 -1.697919e-07
-1.700000e+00 -2.239186e-07
-1.650000e+00 -2.816913e-07
-1.600000e+00 -3.421253e-07
-1.550000e+00 -4.053845e-07
-1.500000e+00 -4.731828e-07
-1.450000e+00 -5.489119e-07
-1.400000e+00 -6.373675e-07
-1.350000e+00 -7.439999e-07
-1.300000e+00 -8.738066e-07
-1.250000e+00 -1.030240e-06
-1.200000e+00 -1.214671e-06
-1.150000e+00 -1.426840e-06
-1.100000e+00 -1.666294e-06
-1.050000e+00 -1.934303e-06
-1.000000e+00 -2.235380e-06
-9.499998e-01 -2.577661e-06
-9.000001e-01 -2.971894e-06
-8.499999e-01 -3.429457e-06
-7.999997e-01 -3.960377e-06
-7.500000e-01 -4.572323e-06
-6.999998e-01 -5.271193e-06
-6.500001e-01 -6.063116e-06
-5.999999e-01 -6.957071e-06
-5.499997e-01 -7.966837e-06
-5.000000e-01 -9.111292e-06
-4.499998e-01 -1.041282e-05
-4.000001e-01 -1.189463e-05
-3.499999e-01 -1.357840e-05
-2.999997e-01 -1.548382e-05
-2.500000e-01 -1.763030e-05
-1.999998e-01 -2.004004e-05
-1.500001e-01 -2.274079e-05
-9.999990e-02 -2.576676e-05
-4.999971e-02 -2.915749e-05
0.000000e+00 -3.295572e-05
5.000019e-02 -3.720601e-05
1.000004e-01 -4.195512e-05
1.500006e-01 -4.725356e-05
1.999998e-01 -5.315725e-05
2.500000e-01 -5.972750e-05
3.000002e-01 -6.702992e-05
3.500004e-01 -7.513286e-05
4.000006e-01 -8.410726e-05
4.499998e-01 -9.402828e-05
5.000000e-01 -1.049776e-04
5.500002e-01 -1.170454e-04
6.000004e-01 -1.303305e-04
6.500006e-01 -1.449393e-04
6.999998e-01 -1.609841e-04
7.500000e-01 -1.785830e-04
8.000002e-01 -1.978593e-04
8.500004e-01 -2.189417e-04
9.000006e-01 -2.419630e-04
9.499998e-01 -2.670592e-04
1.000000e+00 -2.943699e-04
1.050000e+00 -3.240402e-04
1.100000e+00 -3.562232e-04
1.150001e+00 -3.910821e-04
1.200000e+00 -4.287885e-04
1.250000e+00 -4.695187e-04
1.300000e+00 -5.134488e-04
1.350000e+00 -5.607522e-04
1.400001e+00 -6.116009e-04
1.450000e+00 -6.661679e-04
1.500000e+00 -7.246279e-04
1.550000e+00 -7.871573e-04
1.600000e+00 -8.539289e-04
1.650001e+00 -9.251084e-04
1.700000e+00 -1.000853e-03
1.750000e+00 -1.081311e-03
1.800000e+00 -1.166626e-03
1.850000e+00 -1.256932e-03
1.900001e+00 -1.352349e-03
1.950000e+00 -1.452982e-03
2.000000e+00 -1.558910e-03
2.050000e+00 -1.670194e-03
2.100000e+00 -1.786874e-03
2.150001e+00 -1.908969e-03
2.200000e+00 -2.036473e-03
2.250000e+00 -2.169352e-03
2.300000e+00 -2.307535e-03
2.350000e+00 -2.450915e-03
2.400001e+00 -2.599347e-03
2.450000e+00 -2.752652e-03
2.500000e+00 -2.910614e-03
2.550000e+00 -3.072977e-03
2.600000e+00 -3.239438e-03
2.650001e+00 -3.409643e-03
2.700000e+00 -3.583194e-03
2.750000e+00 -3.759642e-03
2.800000e+00 -3.938498e-03
2.850000e+00 -4.119230e-03
2.900001e+00 -4.301247e-03
2.950000e+00 -4.483908e-03
3.000000e+00 -4.666522e-03
3.050000e+00 -4.848344e-03
3.100000e+00 -5.028596e-03
3.150001e+00 -5.206459e-03
3.200000e+00 -5.381073e-03
3.250000e+00 -5.551537e-03
3.300000e+00 -5.716913e-03
3.350000e+00 -5.876226e-03
3.400001e+00 -6.028484e-03
3.450000e+00 -6.172676e-03
3.500000e+00 -6.307783e-03
3.550000e+00 -6.432769e-03
3.600000e+00 -6.546594e-03
3.650001e+00 -6.648214e-03
3.700000e+00 -6.736595e-03
3.750000e+00 -6.810727e-03
3.800000e+00 -6.869626e-03
3.850000e+00 -6.912339e-03
3.900001e+00 -6.937947e-03
3.950000e+00 -6.945578e-03
4.000000e+00 -6.934410e-03
4.050000e+00 -6.903691e-03
4.100000e+00 -6.852746e-03
4.150001e+00 -6.780979e-03
4.200000e+00 -6.687876e-03
4.250000e+00 -6.573013e-03
4.300000e+00 -6.436060e-03
4.350000e+00 -6.276791e-03
4.400001e+00 -6.095098e-03
4.450000e+00 -5.890991e-03
4.500000e+00 -5.664593e-03
4.550000e+00 -5.416144e-03
4.600000e+00 -5.146006e-03
4.650001e+00 -4.854662e-03
4.700000e+00 -4.542731e-03
4.750000e+00 -4.210958e-03
4.800000e+00 -3.860209e-03
4.850000e+00 -3.491465e-03
4.900001e+00 -3.105819e-03
4.950000e+00 -2.704471e-03
5.000000e+00 -2.288731e-03
5.050000e+00 -1.860011e-03
5.100000e+00 -1.419814e-03
5.150001e+00 -9.697234e-04
5.200000e+00 -5.113889e-04
5.250000e+00 -4.651992e-05
5.300000e+00 4.231236e-04
5.350000e+00 8.957406e-04
5.400001e+00 1.369505e-03
5.450000e+00 1.842579e-03
5.500000e+00 2.313132e-03
5.550000e+00 2.779351e-03
5.600000e+00 3.239449e-03
5.650001e+00 3.691680e-03
5.700000e+00 4.134354e-03
5.750000e+00 4.565847e-03
5.800000e+00 4.984631e-03
5.850000e+00 5.389270e-03
5.900001e+00 5.778434e-03
5.950000e+00 6.150912e-03
6.000000e+00 6.505623e-03
6.050000e+00 6.841619e-03
6.100000e+00 7.158111e-03
6.150001e+00 7.454460e-03
6.200000e+00 7.730191e-03
6.250000e+00 7.984984e-03
6.300000e+00 8.218696e-03
6.350000e+00 8.431350e-03
6.400001e+00 8.623139e-03
6.450000e+00 8.794435e-03
6.500000e+00 8.945772e-03
6.550000e+00 9.077852e-03
6.600000e+00 9.191534e-03
6.650001e+00 9.287822e-03
6.700000e+00 9.367878e-03
6.750000e+00 9.432997e-03
6.800000e+00 9.484600e-03
6.850000e+00 9.524217e-03
6.900001e+00 9.553478e-03
6.950000e+00 9.574095e-03
7.000000e+00 9.587855e-03
7.050000e+00 9.596604e-03
7.100000e+00 9.602223e-03
7.150001e+00 9.606610e-03
7.200000e+00 9.611661e-03
7.250000e+00 9.619251e-03
7.300000e+00 9.631230e-03
7.350000e+00 9.649394e-03
7.400001e+00 9.675477e-03
7.450000e+00 9.711122e-03
7.500000e+00 9.757868e-03
7.550000e+00 9.817113e-03
7.600000e+00 9.890125e-03
7.650001e+00 9.978018e-03
7.700000e+00 1.008174e-02
7.750000e+00 1.020205e-02
7.800000e+00 1.033952e-02
7.850000e+00 1.049447e-02
7.900001e+00 1.066705e-02
7.950000e+00 1.085716e-02
8.000000e+00 1.106447e-02
8.050001e+00 1.128842e-02
8.100000e+00 1.152821e-02
8.150000e+00 1.178276e-02
8.200001e+00 1.205079e-02
8.250000e+00 1.233073e-02
8.300001e+00 1.262079e-02
8.350000e+00 1.291896e-02
8.400000e+00 1.322299e-02
8.450001e+00 1.353041e-02
8.500000e+00 1.383855e-02
8.550001e+00 1.414453e-02
8.600000e+00 1.444531e-02
8.650000e+00 1.473771e-02
8.700001e+00 1.501840e-02
8.750000e+00 1.528393e-02
8.800001e+00 1.553075e-02
8.850000e+00 1.575526e-02
8.900000e+00 1.595379e-02
8.950001e+00 1.612266e-02
9.000000e+00 1.625822e-02
9.050001e+00 1.635685e-02
9.100000e+00 1.641501e-02
9.150000e+00 1.642925e-02
9.200001e+00 1.639623e-02
9.250000e+00 1.631279e-02
9.300001e+00 1.617594e-02
9.350000e+00 1.598295e-02
9.400000e+00 1.573130e-02
9.450001e+00 1.541877e-02
9.500000e+00 1.504342e-02
9.550001e+00 1.460366e-02
9.600000e+00 1.409822e-02
9.650000e+00 1.352624e-02
9.700001e+00 1.288722e-02
9.750000e+00 1.218109e-02
9.800001e+00 1.140818e-02
9.850000e+00 1.056926e-02
9.900000e+00 9.665545e-03
9.950001e+00 8.698684e-03
1.000000e+01 7.670783e-03
1.005000e+01 6.584387e-03
1.010000e+01 5.442482e-03
1.015000e+01 4.248479e-03
1.020000e+01 3.006208e-03
1.025000e+01 1.719895e-03
1.030000e+01 3.941526e-04
1.035000e+01 -9.660558e-04
1.040000e+01 -2.355437e-03
1.045000e+01 -3.768405e-03
1.050000e+01 -5.199098e-03
1.055000e+01 -6.641427e-03
1.060000e+01 -8.089100e-03
1.065000e+01 -9.535670e-03
1.070000e+01 -1.097458e-02
1.075000e+01 -1.239919e-02
1.080000e+01 -1.380287e-02
1.085000e+01 -1.517900e-02
1.090000e+01 -1.652099e-02
1.095000e+01 -1.782240e-02
1.100000e+01 -1.907695e-02
1.105000e+01 -2.027851e-02
1.110000e+01 -2.142124e-02
1.115000e+01 -2.249958e-02
1.120000e+01 -2.350830e-02
1.125000e+01 -2.444252e-02
1.130000e+01 -2.529775e-02
1.135000e+01 -2.606994e-02
1.140000e+01 -2.675551e-02
1.145000e+01 -2.735134e-02
1.150000e+01 -2.785483e-02
1.155000e+01 -2.826391e-02
1.160000e+01 -2.857702e-02
1.165000e+01 -2.879317e-02
1.170000e+01 -2.891188e-02
1.175000e+01 -2.893328e-02
1.180000e+01 -2.885797e-02
1.185000e+01 -2.868713e-02
1.190000e+01 -2.842247e-02
1.195000e+01 -2.806618e-02
1.200000e+01 -2.762095e-02
1.205000e+01 -2.708995e-02
1.210000e+01 -2.647678e-02
1.215000e+01 -2.578543e-02
1.220000e+01 -2.502029e-02
1.225000e+01 -2.418605e-02
1.230000e+01 -2.328775e-02
1.235000e+01 -2.233065e-02
1.240000e+01 -2.132029e-02
1.245000e+01 -2.026233e-02
1.250000e+01 -1.916263e-02
1.255000e+01 -1.802709e-02
1.260000e+01 -1.686171e-02
1.265000e+01 -1.567247e-02
1.270000e+01 -1.446537e-02
1.275000e+01 -1.324631e-02
1.280000e+01 -1.202113e-02
1.285000e+01 -1.079547e-02
1.290000e+01 -9.574855e-03
1.295000e+01 -8.364574e-03
1.300000e+01 -7.169702e-03
1.305000e+01 -5.995050e-03
1.310000e+01 -4.845157e-03
1.315000e+01 -3.724265e-03
1.320000e+01 -2.636292e-03
1.325000e+01 -1.584822e-03
1.330000e+01 -5.730960e-04
1.335000e+01 3.960011e-04
1.340000e+01 1.319939e-03
1.345000e+01 2.196540e-03
1.350000e+01 3.023979e-03
1.355000e+01 3.800785e-03
1.360000e+01 4.525836e-03
1.365000e+01 5.198355e-03
1.370000e+01 5.817901e-03
1.375000e+01 6.384344e-03
1.380000e+01 6.897850e-03
1.385000e+01 7.358867e-03
1.390000e+01 7.768109e-03
1.395000e+01 8.126549e-03
1.400000e+01 8.435384e-03
1.405000e+01 8.696034e-03
1.410000e+01 8.910099e-03
1.415000e+01 9.079340e-03
1.420000e+01 9.205663e-03
1.425000e+01 9.291100e-03
1.430000e+01 9.337794e-03
1.435000e+01 9.347974e-03
1.440000e+01 9.323930e-03
1.445000e+01 9.267996e-03
1.450000e+01 9.182526e-03
1.455000e+01 9.069883e-03
1.460000e+01 8.932441e-03
1.465000e+01 8.772545e-03
1.470000e+01 8.592499e-03
1.475000e+01 8.394560e-03
1.480000e+01 8.180914e-03
1.485000e+01 7.953684e-03
1.490000e+01 7.714922e-03
1.495000e+01 7.466590e-03
1.500000e+01 7.210568e-03
1.505000e+01 6.948617e-03
1.510000e+01 6.682396e-03
1.515000e+01 6.413454e-03
1.520000e+01 6.143237e-03
1.525000e+01 5.873094e-03
1.530000e+01 5.604263e-03
1.535000e+01 5.337874e-03
1.540000e+01 5.074941e-03
1.545000e+01 4.816368e-03
1.550000e+01 4.562958e-03
1.555000e+01 4.315419e-03
1.560000e+01 4.074374e-03
1.565000e+01 3.840357e-03
1.570000e+01 3.613815e-03
1.575000e+01 3.395104e-03
1.580000e+01 3.184502e-03
1.585000e+01 2.982210e-03
1.590000e+01 2.788368e-03
1.595000e+01 2.603063e-03
1.600000e+01 2.426327e-03
1.605000e+01 2.258146e-03
1.610000e+01 2.098456e-03
1.615000e+01 1.947143e-03
1.620000e+01 1.804059e-03
1.625000e+01 1.669022e-03
1.630000e+01 1.541832e-03
1.635000e+01 1.422266e-03
1.640000e+01 1.310086e-03
1.645000e+01 1.205032e-03
1.650000e+01 1.106827e-03
1.655000e+01 1.015183e-03
1.660000e+01 9.298069e-04
1.665000e+01 8.504086e-04
1.670000e+01 7.766995e-04
1.675000e+01 7.083904e-04
1.680000e+01 6.451926e-04
1.685000e+01 5.868184e-04
1.690000e+01 5.329867e-04
1.695000e+01 4.834253e-04
1.700000e+01 4.378709e-04
1.705000e+01 3.960672e-04
1.710000e+01 3.577629e-04
1.715000e+01 3.227148e-04
1.720000e+01 2.906929e-04
1.725000e+01 2.614819e-04
1.730000e+01 2.348803e-04
1.735000e+01 2.106954e-04
1.740000e+01 1.887397e-04
1.745000e+01 1.688324e-04
1.750000e+01 1.508042e-04
1.755000e+01 1.345021e-04
1.760000e+01 1.197896e-04
1.765000e+01 1.065408e-04
1.770000e+01 9.463329e-05
1.775000e+01 8.394518e-05
1.780000e+01 7.435830e-05
1.785000e+01 6.576522e-05
1.790000e+01 5.807414e-05
1.795000e+01 5.120773e-05
1.800000e+01 4.509656e-05
1.805000e+01 3.967189e-05
1.810000e+01 3.486293e-05
1.815000e+01 3.060019e-05
1.820000e+01 2.682173e-05
1.825000e+01 2.347759e-05
1.830000e+01 2.052878e-05
1.835000e+01 1.794171e-05
1.840000e+01 1.568184e-05
1.845000e+01 1.371089e-05
1.850000e+01 1.198919e-05
1.855000e+01 1.048126e-05
1.860000e+01 9.160189e-06
1.865000e+01 8.007692e-06
1.870000e+01 7.009829e-06
1.875000e+01 6.151567e-06
1.880000e+01 5.414181e-06
1.885000e+01 4.777271e-06
1.890000e+01 4.223416e-06
1.895000e+01 3.741520e-06
1.900000e+01 3.326000e-06
1.905000e+01 2.972498e-06
1.910000e+01 2.673760e-06
1.915000e+01 2.419147e-06
1.920000e+01 2.197997e-06
1.925000e+01 2.003628e-06
1.930000e+01 1.834075e-06
1.935000e+01 1.688693e-06
1.940000e+01 1.563644e-06
1.945000e+01 1.450672e-06
1.950000e+01 1.340819e-06
1.955000e+01 1.230206e-06
1.960000e+01 1.122681e-06
1.965000e+01 1.026419e-06
1.970000e+01 9.466495e-07
1.975000e+01 8.803058e-07
1.980000e+01 8.171733e-07
1.985000e+01 7.469052e-07
1.990000e+01 6.663861e-07
1.995000e+01 5.815103e-07
2.000000e+01 5.019347e-07
2.005000e+01 4.330486e-07
2.010000e+01 3.715890e-07
2.015000e+01 3.082926e-07
2.020000e+01 2.353135e-07
2.025000e+01 1.524863e-07
2.030000e+01 6.767148e-08
2.035000e+01 -8.813914e-09
2.040000e+01 -7.123156e-08
2.045000e+01 -1.217276e-07
2.050000e+01 -1.678880e-07
2.055000e+01 -2.168508e-07
2.060000e+01 -2.704726e-07
2.065000e+01 -3.247726e-07
2.070000e+01 -3.735053e-07
2.075000e+01 -4.128799e-07
2.080000e+01 -4.440115e-07
2.085000e+01 -4.716316e-07
2.090000e+01 -5.002788e-07
2.095000e+01 -5.308075e-07
2.100000e+01 -5.596373e-07
2.105000e+01 -5.811602e-07
2.110000e+01 -5.915309e-07
2.115000e+01 -5.911247e-07
2.120000e+01 -5.839388e-07
2.125000e+01 -5.744450e-07
2.130000e+01 -5.643195e-07
2.135000e+01 -5.515843e-07
2.140000e+01 -5.328193e-07
2.145000e+01 -5.066154e-07
2.150000e+01 -4.753410e-07
2.155000e+01 -4.436099e-07
2.160000e+01 -4.145951e-07
2.165000e+01 -3.872694e-07
2.170000e+01 -3.570257e-07
2.175000e+01 -3.193241e-07
2.180000e+01 -2.733659e-07
2.185000e+01 -2.226409e-07
2.190000e+01 -1.718104e-07
2.195000e+01 -1.226121e-07
2.200000e+01 -7.246970e-08
2.205000e+01 -1.725452e-08
2.210000e+01 4.402789e-08
2.215000e+01 1.068019e-07
2.220000e+01 1.632906e-07
2.225000e+01 2.082421e-07
2.230000e+01 2.434826e-07
2.235000e+01 2.773091e-07
2.240000e+01 3.186774e-07
2.245000e+01 3.703942e-07
2.250000e+01 4.266180e-07
2.255000e+01 4.768542e-07
2.260000e+01 5.136374e-07
2.265000e+01 5.381027e-07
2.270000e+01 5.590858e-07
2.275000e+01 5.862351e-07
2.280000e+01 6.222339e-07
2.285000e+01 6.600314e-07
2.290000e+01 6.873237e-07
2.295000e+01 6.950991e-07
2.300000e+01 6.839684e-07
2.305000e+01 6.635826e-07
2.310000e+01 6.455592e-07
2.315000e+01 6.351383e-07
2.320000e+01 6.276755e-07
2.325000e+01 6.124108e-07
2.330000e+01 5.805029e-07
2.335000e+01 5.312660e-07
2.340000e+01 4.721164e-07
2.345000e+01 4.126359e-07
2.350000e+01 3.575482e-07
2.355000e+01 3.039304e-07
2.360000e+01 2.444154e-07
2.365000e+01 1.734553e-07
2.370000e+01 9.161526e-08
2.375000e+01 4.829077e-09
2.380000e+01 -8.025317e-08
2.385000e+01 -1.607722e-07
2.390000e+01 -2.385341e-07
2.395000e+01 -3.170560e-07
2.400000e+01 -3.976760e-07
2.405000e+01 -4.780173e-07
2.410000e+01 -5.537535e-07
2.415000e+01 -6.217789e-07
2.420000e+01 -6.819873e-07
2.425000e+01 -7.363929e-07
2.430000e+01 -7.867478e-07
2.435000e+01 -8.328824e-07
2.440000e+01 -8.730380e-07
2.445000e+01 -9.055007e-07
2.450000e+01 -9.297992e-07
2.455000e+01 -9.463778e-07
2.460000e+01 -9.552333e-07
2.465000e+01 -9.549816e-07
2.470000e+01 -9.433547e-07
2.475000e+01 -9.187558e-07
2.480000e+01 -8.815317e-07
2.485000e+01 -8.338624e-07
2.490000e+01 -7.783352e-07
2.495000e+01 -7.163221e-07
2.500000e+01 -6.473846e-07
2.505000e+01 -5.701211e-07
2.510000e+01 -4.838359e-07
2.515000e+01 -3.898777e-07
2.520000e+01 -2.917422e-07
2.525000e+01 -1.937989e-07
2.530000e+01 -9.933824e-08
2.535000e+01 -9.108133e-09
2.540000e+01 7.866371e-08
2.545000e+01 1.665885e-07
2.550000e+01 2.556954e-07
2.555000e+01 3.438560e-07
2.560000e+01 4.262545e-07
2.565000e+01 4.977325e-07
2.570000e+01 5.553686e-07
2.575000e+01 5.992979e-07
2.580000e+01 6.310031e-07
2.585000e+01 6.503095e-07
2.590000e+01 6.534971e-07
2.595000e+01 6.341995e-07
2.600000e+01 5.865899e-07
2.605000e+01 5.084630e-07
2.610000e+01 4.018270e-07
2.615000e+01 2.705573e-07
2.620000e+01 1.169434e-07
2.625000e+01 -6.030081e-08
2.630000e+01 -2.653373e-07
2.635000e+01 -5.027869e-07
2.640000e+01 -7.757347e-07
2.645000e+01 -1.085557e-06
2.650000e+01 -1.433188e-06
2.655000e+01 -1.820280e-06
2.660000e+01 -2.249164e-06
2.665000e+01 -2.721926e-06
2.670000e+01 -3.239840e-06
2.675000e+01 -3.803931e-06
2.680000e+01 -4.416122e-06
2.685000e+01 -5.079650e-06
2.690000e+01 -5.798065e-06
2.695000e+01 -6.573633e-06
2.700000e+01 -7.406808e-06
2.705000e+01 -8.297727e-06
2.710000e+01 -9.248827e-06
2.715000e+01 -1.026652e-05
2.720000e+01 -1.136029e-05
2.725000e+01 -1.253957e-05
2.730000e+01 -1.381063e-05
2.735000e+01 -1.517596e-05
2.740000e+01 -1.663656e-05
2.745000e+01 -1.819541e-05
2.750000e+01 -1.985962e-05
2.755000e+01 -2.163937e-05
2.760000e+01 -2.354483e-05
2.765000e+01 -2.558326e-05
2.770000e+01 -2.775869e-05
2.775000e+01 -3.007444e-05
2.780000e+01 -3.253647e-05
2.785000e+01 -3.515506e-05
2.790000e+01 -3.794354e-05
2.795000e+01 -4.091475e-05
2.800000e+01 -4.407802e-05
2.805000e+01 -4.743852e-05
2.810000e+01 -5.099941e-05
2.815000e+01 -5.476483e-05
2.820000e+01 -5.874156e-05
2.825000e+01 -6.293793e-05
2.830000e+01 -6.736087e-05
2.835000e+01 -7.201368e-05
2.840000e+01 -7.689594e-05
2.845000e+01 -8.200570e-05
2.850000e+01 -8.734219e-05
2.855000e+01 -9.290652e-05
2.860000e+01 -9.869987e-05
2.865000e+01 -1.047204e-04
2.870000e+01 -1.109614e-04
2.875000e+01 -1.174116e-04
2.880000e+01 -1.240580e-04
2.885000e+01 -1.308875e-04
2.890000e+01 -1.378874e-04
2.895000e+01 -1.450428e-04
2.900000e+01 -1.523341e-04
2.905000e+01 -1.597368e-04
2.910000e+01 -1.672226e-04
2.915000e+01 -1.747629e-04
2.920000e+01 -1.823302e-04
2.925000e+01 -1.898964e-04
2.930000e+01 -1.974305e-04
2.935000e+01 -2.048956e-04
2.940000e+01 -2.122490e-04
2.945000e+01 -2.194457e-04
