-8.000000e+00 0.000000e+00
-7.950000e+00 0.000000e+00
-7.900000e+00 0.000000e+00
-7.850000e+00 0.000000e+00
-7.800000e+00 0.000000e+00
-7.750000e+00 0.000000e+00
-7.700000e+00 0.000000e+00
-7.650000e+00 0.000000e+00
-7.600000e+00 0.000000e+00
-7.550000e+00 0.000000e+00
-7.500000e+00 0.000000e+00
-7.450000e+00 0.000000e+00
-7.400000e+00 0.000000e+00
-7.350000e+00 0.000000e+00
-7.300000e+00 0.000000e+00
-7.250000e+00 0.000000e+00
-7.200000e+00 0.000000e+00
-7.150000e+00 0.000000e+00
-7.100000e+00 0.000000e+00
-7.050000e+00 0.000000e+00
-7.000000e+00 0.000000e+00
-6.950000e+00 0.000000e+00
-6.900000e+00 0.000000e+00
-6.850000e+00 0.000000e+00
-6.800000e+00 0.000000e+00
-6.750000e+00 0.000000e+00
-6.700000e+00 0.000000e+00
-6.650000e+00 0.000000e+00
-6.600000e+00 0.000000e+00
-6.550000e+00 0.000000e+00
-6.500000e+00 0.000000e+00
-6.450000e+00 0.000000e+00
-6.400000e+00 0.000000e+00
-6.350000e+00 0.000000e+00
-6.300000e+00 0.000000e+00
-6.250000e+00 0.000000e+00
-6.200000e+00 0.000000e+00
-6.150000e+00 0.000000e+00
-6.100000e+00 0.000000e+00
-6.050000e+00 0.000000e+00
-6.000000e+00 0.000000e+00
-5.950000e+00 0.000000e+00
-5.900000e+00 0.000000e+00
-5.850000e+00 0.000000e+00
-5.800000e+00 0.000000e+00
-5.750000e+00 0.000000e+00
-5.700000e+00 0.000000e+00
-5.650000e+00 0.000000e+00
-5.600000e+00 0.000000e+00
-5.550000e+00 0.000000e+00
-5.500000e+00 0.000000e+00
-5.450000e+00 0.000000e+00
-5.400000e+00 0.000000e+00
-5.350000e+00 0.000000e+00
-5.300000e+00 0.000000e+00
-5.250000e+00 0.000000e+00
-5.200000e+00 0.000000e+00
-5.150000e+00 0.000000e+00
-5.100000e+00 0.000000e+00
-5.050000e+00 0.000000e+00
-5.000000e+00 0.000000e+00
-4.950000e+00 0.000000e+00
-4.900000e+00 0.000000e+00
-4.850000e+00 0.000000e+00
-4.800000e+00 0.000000e+00
-4.750000e+00 0.000000e+00
-4.700000e+00 2.802597e-45
-4.650000e+00 2.802597e-45
-4.600000e+00 -1.401298e-45
-4.550000e+00 -8.407791e-45
-4.500000e+00 -1.121039e-44
-4.450000e+00 1.121039e-44
-4.400000e+00 5.745324e-44
-4.350000e+00 6.445973e-44
-4.300000e+00 -8.547921e-44
-4.250000e+00 -2.942727e-43
-4.200000e+00 -3.923636e-44
-4.150000e+00 9.486791e-43
-4.100000e+00 1.640921e-42
-4.050000e+00 -4.946584e-43
-4.000000e+00 -6.410940e-42
-3.950000e+00 -9.929601e-42
-3.900000e+00 2.724124e-42
-3.850000e+00 3.669861e-41
-3.800000e+00 5.858829e-41
-3.750000e+00 -6.800501e-42
-3.700000e+00 -1.930275e-40
-3.650000e+00 -3.345152e-40
-3.600000e+00 -3.508291e-41
-3.550000e+00 9.299801e-40
-3.500000e+00 1.812722e-39
-3.450000e+00 6.270895e-40
-3.400000e+00 -4.054642e-39
-3.350000e+00 -9.197130e-39
-3.300000e+00 -5.412514e-39
-3.250000e+00 1.565902e-38
-3.200000e+00 4.330016e-38
-3.150000e+00 3.596925e-38
-3.100000e+00 -5.124936e-38
-3.050000e+00 -1.879523e-37
-3.000000e+00 -2.031631e-37
-2.950000e+00 1.248932e-37
-2.900000e+00 7.468021e-37
-2.850000e+00 1.013167e-36
-2.800000e+00 -8.490734e-38
-2.750000e+00 -2.686098e-36
-2.700000e+00 -4.541345e-36
-2.650000e+00 -1.414945e-36
-2.600000e+00 8.563468e-36
-2.550000e+00 1.844401e-35
-2.500000e+00 1.181595e-35
-2.450000e+00 -2.308151e-35
-2.400000e+00 -6.797422e-35
-2.350000e+00 -6.433681e-35
-2.300000e+00 4.554031e-35
-2.250000e+00 2.261939e-34
-2.200000e+00 2.867211e-34
-2.150000e+00 -1.652725e-35
-2.100000e+00 -6.697706e-34
-2.050000e+00 -1.110859e-33
-2.000000e+00 -4.239956e-34
-1.950000e+00 1.704405e-33
-1.900000e+00 3.820331e-33
-1.850000e+00 2.819268e-33
-1.800000e+00 -3.384099e-33
-1.750000e+00 -1.170096e-32
-1.700000e+00 -1.262112e-32
-1.650000e+00 3.198185e-33
-1.600000e+00 3.155753e-32
-1.550000e+00 4.633462e-32
-1.500000e+00 1.301214e-32
-1.450000e+00 -7.234288e-32
-1.400000e+00 -1.468135e-31
-1.350000e+00 -9.940740e-32
-1.300000e+00 1.267806e-31
-1.250000e+00 4.062400e-31
-1.200000e+00 4.232352e-31
-1.150000e+00 -9.215137e-32
-1.100000e+00 -9.695594e-31
-1.050000e+00 -1.416548e-30
-1.000000e+00 -4.760249e-31
-9.499998e-01 1.900427e-30
-9.000001e-01 3.997494e-30
-8.499999e-01 2.970568e-30
-7.999997e-01 -2.569569e-30
-7.500000e-01 -9.626585e-30
-6.999998e-01 -1.089277e-29
-6.500001e-01 -1.594519e-31
-5.999999e-01 1.931169e-29
-5.499997e-01 3.130045e-29
-5.000000e-01 1.597637e-29
-4.499998e-01 -2.940385e-29
-4.000001e-01 -7.461403e-29
-3.499999e-01 -6.765121e-29
-2.999997e-01 2.070239e-29
-2.500000e-01 1.473590e-28
-1.999998e-01 1.963663e-28
-1.500001e-01 6.122867e-29
-9.999990e-02 -2.288495e-28
-4.999971e-02 -4.538461e-28
0.000000e+00 -3.272137e-28
5.000019e-02 2.273778e-28
1.000004e-01 8.636054e-28
1.500006e-01 9.420901e-28
1.999998e-01 6.264006e-29
2.500000e-01 -1.357475e-27
3.000002e-01 -2.079023e-27
3.500004e-01 -9.479536e-28
4.000006e-01 1.777652e-27
4.499998e-01 3.930962e-27
5.000000e-01 2.805901e-27
5.500002e-01 -2.082699e-27
6.000004e-01 -7.175529e-27
6.500006e-01 -6.605606e-27
6.999998e-01 2.378616e-27
7.500000e-01 1.428494e-26
8.000002e-01 1.657259e-26
8.500004e-01 -2.956673e-28
9.000006e-01 -2.979965e-26
9.499998e-01 -4.605683e-26
1.000000e+00 -2.004928e-26
1.050000e+00 5.011926e-26
1.100000e+00 1.187716e-25
1.150001e+00 1.097289e-25
1.200000e+00 -2.390638e-26
1.250000e+00 -2.324316e-25
1.300000e+00 -3.573517e-25
1.350000e+00 -2.181582e-25
1.400001e+00 2.284544e-25
1.450000e+00 7.649325e-25
1.500000e+00 9.565158e-25
1.550000e+00 4.126075e-25
1.600000e+00 -8.465789e-25
1.650001e+00 -2.173886e-24
1.700000e+00 -2.485008e-24
1.750000e+00 -9.070207e-25
1.800000e+00 2.395185e-24
1.850000e+00 5.768258e-24
1.900001e+00 6.539877e-24
1.950000e+00 2.541176e-24
2.000000e+00 -5.903225e-24
2.050000e+00 -1.477885e-23
2.100000e+00 -1.736049e-23
2.150001e+00 -7.889176e-24
2.200000e+00 1.332866e-23
2.250000e+00 3.659103e-23
2.300000e+00 4.497268e-23
2.350000e+00 2.353784e-23
2.400001e+00 -2.772672e-23
2.450000e+00 -8.562731e-23
2.500000e+00 -1.094941e-22
2.550000e+00 -6.392609e-23
2.600000e+00 5.094578e-23
2.650001e+00 1.823886e-22
2.700000e+00 2.414215e-22
2.750000e+00 1.549744e-22
2.800000e+00 -7.222900e-23
2.850000e+00 -3.316572e-22
2.900001e+00 -4.558650e-22
2.950000e+00 -3.243512e-22
3.000000e+00 3.454802e-23
3.050000e+00 4.310323e-22
3.100000e+00 6.283547e-22
3.150001e+00 5.214759e-22
3.200000e+00 2.337766e-22
3.250000e+00 8.905785e-24
3.300000e+00 -6.688321e-23
3.350000e+00 -2.727710e-22
3.400001e+00 -1.088617e-21
3.450000e+00 -2.581682e-21
3.500000e+00 -3.735872e-21
3.550000e+00 -2.491320e-21
3.600000e+00 2.906260e-21
3.650001e+00 1.157604e-20
3.700000e+00 1.831967e-20
3.750000e+00 1.485858e-20
3.800000e+00 -4.839137e-21
3.850000e+00 -3.701134e-20
3.900001e+00 -6.368427e-20
3.950000e+00 -5.775181e-20
4.000000e+00 1.288243e-22
4.050000e+00 9.937637e-20
4.100000e+00 1.876355e-19
4.150001e+00 1.862103e-19
4.200000e+00 3.750672e-20
4.250000e+00 -2.347084e-19
4.300000e+00 -4.938813e-19
4.350000e+00 -5.310920e-19
4.400001e+00 -1.871071e-19
4.450000e+00 4.944415e-19
4.500000e+00 1.186661e-18
4.550000e+00 1.375170e-18
4.600000e+00 6.503009e-19
4.650001e+00 -9.271041e-19
4.700000e+00 -2.629915e-18
4.750000e+00 -3.274528e-18
4.800000e+00 -1.877349e-18
4.850000e+00 1.521827e-18
4.900001e+00 5.408672e-18
4.950000e+00 7.224605e-18
5.000000e+00 4.758689e-18
5.050000e+00 -2.099816e-18
5.100000e+00 -1.037893e-17
5.150001e+00 -1.485708e-17
5.200000e+00 -1.086237e-17
5.250000e+00 2.185634e-18
5.300000e+00 1.874683e-17
5.350000e+00 2.869360e-17
5.400001e+00 2.268298e-17
5.450000e+00 -1.000668e-18
5.500000e+00 -3.243375e-17
5.550000e+00 -5.274218e-17
5.600000e+00 -4.402467e-17
5.650001e+00 -2.145071e-18
5.700000e+00 5.552243e-17
5.750000e+00 9.456433e-17
5.800000e+00 8.140105e-17
5.850000e+00 6.897997e-18
5.900001e+00 -9.856072e-17
5.950000e+00 -1.719475e-16
6.000000e+00 -1.495627e-16
6.050000e+00 -1.128350e-17
6.100000e+00 1.887278e-16
6.150001e+00 3.310817e-16
6.200000e+00 2.892122e-16
6.250000e+00 1.597565e-17
6.300000e+00 -3.893717e-16
6.350000e+00 -6.886273e-16
6.400001e+00 -6.136521e-16
6.450000e+00 -4.563060e-17
6.500000e+00 8.301219e-16
6.550000e+00 1.515475e-15
6.600000e+00 1.412607e-15
6.650001e+00 2.120157e-16
6.700000e+00 -1.741166e-15
6.750000e+00 -3.380856e-15
6.800000e+00 -3.350284e-15
6.850000e+00 -8.567273e-16
6.900001e+00 3.472319e-15
6.950000e+00 7.365328e-15
7.000000e+00 7.788676e-15
7.050000e+00 2.811102e-15
7.100000e+00 -6.467660e-15
7.150001e+00 -1.532674e-14
7.200000e+00 -1.722902e-14
7.250000e+00 -7.771769e-15
7.300000e+00 1.118330e-14
7.350000e+00 3.017399e-14
7.400001e+00 3.578305e-14
7.450000e+00 1.868216e-14
7.500000e+00 -1.801705e-14
7.550000e+00 -5.610054e-14
7.600000e+00 -6.947404e-14
7.650001e+00 -3.982379e-14
7.700000e+00 2.749506e-14
7.750000e+00 9.879981e-14
7.800000e+00 1.260813e-13
7.850000e+00 7.610685e-14
7.900001e+00 -4.120418e-14
7.950000e+00 -1.658464e-13
8.000000e+00 -2.142604e-13
8.050001e+00 -1.309457e-13
8.100000e+00 6.411663e-14
8.150000e+00 2.675820e-13
8.200001e+00 3.418246e-13
8.250000e+00 2.022926e-13
8.300001e+00 -1.087296e-13
8.350000e+00 -4.186912e-13
8.400000e+00 -5.131882e-13
8.450001e+00 -2.769428e-13
8.500000e+00 2.005371e-13
8.550001e+00 6.397381e-13
8.600000e+00 7.255801e-13
8.650000e+00 3.237901e-13
8.700001e+00 -3.828296e-13
8.750000e+00 -9.560019e-13
8.800001e+00 -9.621896e-13
8.850000e+00 -2.864946e-13
8.900000e+00 7.175885e-13
8.950001e+00 1.388739e-12
9.000000e+00 1.178043e-12
9.050001e+00 7.428242e-14
9.100000e+00 -1.280038e-12
9.150000e+00 -1.933864e-12
9.200001e+00 -1.273361e-12
9.250000e+00 4.526889e-13
9.300001e+00 2.148384e-12
9.350000e+00 2.528504e-12
9.400000e+00 1.054521e-12
9.450001e+00 -1.504680e-12
9.500000e+00 -3.394242e-12
9.550001e+00 -3.017519e-12
9.600000e+00 -1.997591e-13
9.650000e+00 3.375492e-12
9.700001e+00 5.072013e-12
9.750000e+00 3.140184e-12
9.800001e+00 -1.728517e-12
9.850000e+00 -6.396634e-12
9.900000e+00 -7.169773e-12
9.950001e+00 -2.535230e-12
1.000000e+01 5.179609e-12
1.005000e+01 1.074696e-11
1.010000e+01 9.419771e-12
1.015000e+01 6.801136e-13
1.020000e+01 -1.045126e-11
1.025000e+01 -1.607467e-11
1.030000e+01 -1.084132e-11
1.035000e+01 3.434623e-12
1.040000e+01 1.769975e-11
1.045000e+01 2.112938e-11
1.050000e+01 9.087116e-12
1.055000e+01 -1.204204e-11
1.060000e+01 -2.753399e-11
1.065000e+01 -2.403624e-11
1.070000e+01 -2.849520e-13
1.075000e+01 2.925781e-11
1.080000e+01 4.220023e-11
1.085000e+01 2.392107e-11
1.090000e+01 -1.920753e-11
1.095000e+01 -5.980223e-11
1.100000e+01 -6.558808e-11
1.105000e+01 -2.290140e-11
1.110000e+01 4.866390e-11
1.115000e+01 1.034351e-10
1.120000e+01 9.788324e-11
1.125000e+01 2.314472e-11
1.130000e+01 -8.150030e-11
1.135000e+01 -1.479605e-10
1.140000e+01 -1.235222e-10
1.145000e+01 -1.196934e-11
1.150000e+01 1.192881e-10
1.155000e+01 1.776098e-10
1.160000e+01 1.090600e-10
1.165000e+01 -5.461323e-11
1.170000e+01 -2.036900e-10
1.175000e+01 -2.172357e-10
1.180000e+01 -5.077798e-11
1.185000e+01 2.152445e-10
1.190000e+01 4.084016e-10
1.195000e+01 3.691469e-10
1.200000e+01 6.508907e-11
1.205000e+01 -3.644686e-10
1.210000e+01 -6.753213e-10
1.215000e+01 -6.654731e-10
1.220000e+01 -3.109497e-10
1.225000e+01 2.048135e-10
1.230000e+01 5.994217e-10
1.235000e+01 6.753083e-10
1.240000e+01 4.558660e-10
1.245000e+01 1.716143e-10
1.250000e+01 9.107606e-11
1.255000e+01 3.037124e-10
1.260000e+01 6.109952e-10
1.265000e+01 6.232827e-10
1.270000e+01 2.348290e-11
1.275000e+01 -1.167578e-09
1.280000e+01 -2.512726e-09
1.285000e+01 -3.347837e-09
1.290000e+01 -3.142851e-09
1.295000e+01 -1.810362e-09
1.300000e+01 2.452938e-10
1.305000e+01 2.381587e-09
1.310000e+01 4.109585e-09
1.315000e+01 5.352216e-09
1.320000e+01 6.376001e-09
1.325000e+01 7.427559e-09
1.330000e+01 8.327373e-09
1.335000e+01 8.331040e-09
1.340000e+01 6.405711e-09
1.345000e+01 1.783695e-09
1.350000e+01 -5.559165e-09
1.355000e+01 -1.483611e-08
1.360000e+01 -2.487367e-08
1.365000e+01 -3.477823e-08
1.370000e+01 -4.441984e-08
1.375000e+01 -5.442182e-08
1.380000e+01 -6.568268e-08
1.385000e+01 -7.878762e-08
1.390000e+01 -9.375147e-08
1.395000e+01 -1.102951e-07
1.400000e+01 -1.284542e-07
1.405000e+01 -1.490456e-07
1.410000e+01 -1.735822e-07
1.415000e+01 -2.036266e-07
1.420000e+01 -2.400106e-07
1.425000e+01 -2.825188e-07
1.430000e+01 -3.303564e-07
1.435000e+01 -3.831709e-07
1.440000e+01 -4.419551e-07
1.445000e+01 -5.091602e-07
1.450000e+01 -5.878603e-07
1.455000e+01 -6.804821e-07
1.460000e+01 -7.879993e-07
1.465000e+01 -9.102470e-07
1.470000e+01 -1.047264e-06
1.475000e+01 -1.200817e-06
1.480000e+01 -1.375030e-06
1.485000e+01 -1.575574e-06
1.490000e+01 -1.807839e-06
1.495000e+01 -2.075291e-06
1.500000e+01 -2.379181e-06
1.505000e+01 -2.719966e-06
1.510000e+01 -3.099627e-06
1.515000e+01 -3.523397e-06
1.520000e+01 -3.999737e-06
1.525000e+01 -4.538529e-06
1.530000e+01 -5.148645e-06
1.535000e+01 -5.836598e-06
1.540000e+01 -6.607231e-06
1.545000e+01 -7.466081e-06
1.550000e+01 -8.421798e-06
1.555000e+01 -9.486977e-06
1.560000e+01 -1.067667e-05
1.565000e+01 -1.200562e-05
1.570000e+01 -1.348599e-05
1.575000e+01 -1.512750e-05
1.580000e+01 -1.693993e-05
1.585000e+01 -1.893659e-05
1.590000e+01 -2.113655e-05
1.595000e+01 -2.356395e-05
1.600000e+01 -2.624473e-05
1.605000e+01 -2.920268e-05
1.610000e+01 -3.245725e-05
1.615000e+01 -3.602466e-05
1.620000e+01 -3.992138e-05
1.625000e+01 -4.416837e-05
1.630000e+01 -4.879307e-05
1.635000e+01 -5.382845e-05
1.640000e+01 -5.930964e-05
1.645000e+01 -6.527020e-05
1.650000e+01 -7.174029e-05
1.655000e+01 -7.874723e-05
1.660000e+01 -8.631755e-05
1.665000e+01 -9.447952e-05
1.670000e+01 -1.032640e-04
1.675000e+01 -1.127039e-04
1.680000e+01 -1.228326e-04
1.685000e+01 -1.336833e-04
1.690000e+01 -1.452881e-04
1.695000e+01 -1.576783e-04
1.700000e+01 -1.708838e-04
1.705000e+01 -1.849322e-04
1.710000e+01 -1.998477e-04
1.715000e+01 -2.156499e-04
1.720000e+01 -2.323549e-04
1.725000e+01 -2.499762e-04
1.730000e+01 -2.685269e-04
1.735000e+01 -2.880180e-04
1.740000e+01 -3.084582e-04
1.745000e+01 -3.298501e-04
1.750000e+01 -3.521881e-04
1.755000e+01 -3.754570e-04
1.760000e+01 -3.996341e-04
1.765000e+01 -4.246895e-04
1.770000e+01 -4.505885e-04
1.775000e+01 -4.772892e-04
1.780000e+01 -5.047417e-04
1.785000e+01 -5.328862e-04
1.790000e+01 -5.616508e-04
1.795000e+01 -5.909554e-04
1.800000e+01 -6.207106e-04
1.805000e+01 -6.508203e-04
1.810000e+01 -6.811793e-04
1.815000e+01 -7.116704e-04
1.820000e+01 -7.421610e-04
1.825000e+01 -7.725034e-04
1.830000e+01 -8.025366e-04
1.835000e+01 -8.320913e-04
1.840000e+01 -8.609946e-04
1.845000e+01 -8.890699e-04
1.850000e+01 -9.161374e-04
1.855000e+01 -9.420074e-04
1.860000e+01 -9.664788e-04
1.865000e+01 -9.893348e-04
1.870000e+01 -1.010348e-03
1.875000e+01 -1.029286e-03
1.880000e+01 -1.045915e-03
1.885000e+01 -1.060008e-03
1.890000e+01 -1.071342e-03
1.895000e+01 -1.079700e-03
1.900000e+01 -1.084864e-03
1.905000e+01 -1.086618e-03
1.910000e+01 -1.084750e-03
1.915000e+01 -1.079047e-03
1.920000e+01 -1.069310e-03
1.925000e+01 -1.055352e-03
1.930000e+01 -1.037003e-03
1.935000e+01 -1.014114e-03
1.940000e+01 -9.865519e-04
1.945000e+01 -9.542051e-04
1.950000e+01 -9.169819e-04
1.955000e+01 -8.748109e-04
1.960000e+01 -8.276452e-04
1.965000e+01 -7.754625e-04
1.970000e+01 -7.182696e-04
1.975000e+01 -6.561016e-04
1.980000e+01 -5.890261e-04
1.985000e+01 -5.171415e-04
1.990000e+01 -4.405771e-04
1.995000e+01 -3.594938e-04
2.000000e+01 -2.740842e-04
2.005000e+01 -1.845720e-04
2.010000e+01 -9.121265e-05
2.015000e+01 5.707613e-06
2.020000e+01 1.058724e-04
2.025000e+01 2.089364e-04
2.030000e+01 3.145272e-04
2.035000e+01 4.222462e-04
2.040000e+01 5.316705e-04
2.045000e+01 6.423551e-04
2.050000e+01 7.538340e-04
2.055000e+01 8.656247e-04
2.060000e+01 9.772304e-04
2.065000e+01 1.088144e-03
2.070000e+01 1.197852e-03
2.075000e+01 1.305838e-03
2.080000e+01 1.411585e-03
2.085000e+01 1.514575e-03
2.090000e+01 1.614300e-03
2.095000e+01 1.710253e-03
2.100000e+01 1.801945e-03
2.105000e+01 1.888898e-03
2.110000e+01 1.970656e-03
2.115000e+01 2.046789e-03
2.120000e+01 2.116892e-03
2.125000e+01 2.180594e-03
2.130000e+01 2.237557e-03
2.135000e+01 2.287472e-03
2.140000e+01 2.330070e-03
2.145000e+01 2.365118e-03
2.150000e+01 2.392422e-03
2.155000e+01 2.411828e-03
2.160000e+01 2.423229e-03
2.165000e+01 2.426565e-03
2.170000e+01 2.421819e-03
2.175000e+01 2.409022e-03
2.180000e+01 2.388247e-03
2.185000e+01 2.359614e-03
2.190000e+01 2.323280e-03
2.195000e+01 2.279449e-03
2.200000e+01 2.228358e-03
2.205000e+01 2.170287e-03
2.210000e+01 2.105555e-03
2.215000e+01 2.034512e-03
2.220000e+01 1.957542e-03
2.225000e+01 1.875054e-03
2.230000e+01 1.787481e-03
2.235000e+01 1.695280e-03
2.240000e+01 1.598922e-03
2.245000e+01 1.498901e-03
2.250000e+01 1.395721e-03
2.255000e+01 1.289898e-03
2.260000e+01 1.181950e-03
2.265000e+01 1.072395e-03
2.270000e+01 9.617490e-04
2.275000e+01 8.505163e-04
2.280000e+01 7.391940e-04
2.285000e+01 6.282696e-04
2.290000e+01 5.182180e-04
2.295000e+01 4.094997e-04
2.300000e+01 3.025557e-04
2.305000e+01 1.978029e-04
2.310000e+01 9.563235e-05
2.315000e+01 -3.593344e-06
2.320000e+01 -9.953909e-05
2.325000e+01 -1.918981e-04
2.330000e+01 -2.803916e-04
2.335000e+01 -3.647713e-04
2.340000e+01 -4.448206e-04
2.345000e+01 -5.203562e-04
2.350000e+01 -5.912279e-04
2.355000e+01 -6.573166e-04
2.360000e+01 -7.185333e-04
2.365000e+01 -7.748159e-04
2.370000e+01 -8.261300e-04
2.375000e+01 -8.724702e-04
2.380000e+01 -9.138591e-04
2.385000e+01 -9.503468e-04
2.390000e+01 -9.820103e-04
2.395000e+01 -1.008949e-03
2.400000e+01 -1.031281e-03
2.405000e+01 -1.049145e-03
2.410000e+01 -1.062690e-03
2.415000e+01 -1.072085e-03
2.420000e+01 -1.077511e-03
2.425000e+01 -1.079160e-03
2.430000e+01 -1.077239e-03
2.435000e+01 -1.071957e-03
2.440000e+01 -1.063532e-03
2.445000e+01 -1.052184e-03
2.450000e+01 -1.038136e-03
2.455000e+01 -1.021611e-03
2.460000e+01 -1.002833e-03
2.465000e+01 -9.820254e-04
2.470000e+01 -9.594059e-04
2.475000e+01 -9.351908e-04
2.480000e+01 -9.095893e-04
2.485000e+01 -8.828056e-04
2.490000e+01 -8.550352e-04
2.495000e+01 -8.264658e-04
2.500000e+01 -7.972743e-04
2.505000e+01 -7.676269e-04
2.510000e+01 -7.376804e-04
2.515000e+01 -7.075821e-04
2.520000e+01 -6.774710e-04
2.525000e+01 -6.474769e-04
2.530000e+01 -6.177198e-04
2.535000e+01 -5.883099e-04
2.540000e+01 -5.593461e-04
2.545000e+01 -5.309177e-04
2.550000e+01 -5.031024e-04
2.555000e+01 -4.759673e-04
2.560000e+01 -4.495698e-04
2.565000e+01 -4.239570e-04
2.570000e+01 -3.991687e-04
2.575000e+01 -3.752377e-04
2.580000e+01 -3.521915e-04
2.585000e+01 -3.300522e-04
2.590000e+01 -3.088362e-04
2.595000e+01 -2.885530e-04
2.600000e+01 -2.692046e-04
2.605000e+01 -2.507861e-04
2.610000e+01 -2.332865e-04
2.615000e+01 -2.166913e-04
2.620000e+01 -2.009834e-04
2.625000e+01 -1.861443e-04
2.630000e+01 -1.721539e-04
2.635000e+01 -1.589906e-04
2.640000e+01 -1.466298e-04
2.645000e+01 -1.350441e-04
2.650000e+01 -1.242032e-04
2.655000e+01 -1.140747e-04
2.660000e+01 -1.046258e-04
2.665000e+01 -9.582505e-05
2.670000e+01 -8.764248e-05
2.675000e+01 -8.004939e-05
2.680000e+01 -7.301712e-05
2.685000e+01 -6.651612e-05
2.690000e+01 -6.051584e-05
2.695000e+01 -5.498533e-05
2.700000e+01 -4.989469e-05
2.705000e+01 -4.521569e-05
2.710000e+01 -4.092182e-05
2.715000e+01 -3.698768e-05
2.720000e+01 -3.338826e-05
2.725000e+01 -3.009908e-05
2.730000e+01 -2.709672e-05
2.735000e+01 -2.435964e-05
2.740000e+01 -2.186866e-05
2.745000e+01 -1.960664e-05
2.750000e+01 -1.755763e-05
2.755000e+01 -1.570601e-05
2.760000e+01 -1.403592e-05
2.765000e+01 -1.253117e-05
2.770000e+01 -1.117570e-05
2.775000e+01 -9.954344e-06
2.780000e+01 -8.853456e-06
2.785000e+01 -7.861411e-06
2.790000e+01 -6.968574e-06
2.795000e+01 -6.166861e-06
2.800000e+01 -5.449074e-06
2.805000e+01 -4.808343e-06
2.810000e+01 -4.237961e-06
2.815000e+01 -3.731505e-06
2.820000e+01 -3.283024e-06
2.825000e+01 -2.886976e-06
2.830000e+01 -2.537936e-06
2.835000e+01 -2.230366e-06
2.840000e+01 -1.958731e-06
2.845000e+01 -1.717956e-06
2.850000e+01 -1.503892e-06
2.855000e+01 -1.313409e-06
2.860000e+01 -1.144034e-06
2.865000e+01 -9.935281e-07
2.870000e+01 -8.598071e-07
2.875000e+01 -7.412909e-07
2.880000e+01 -6.372628e-07
2.885000e+01 -5.476684e-07
2.890000e+01 -4.722699e-07
2.895000e+01 -4.097054e-07
2.900000e+01 -3.572753e-07
2.905000e+01 -3.117874e-07
2.910000e+01 -2.709165e-07
2.915000e+01 -2.340132e-07
2.920000e+01 -2.016678e-07
2.925000e+01 -1.743448e-07
2.930000e+01 -1.512247e-07
2.935000e+01 -1.302720e-07
2.940000e+01 -1.095451e-07
2.945000e+01 -8.869097e-08
