-8.000000e+00 0.000000e+00
-7.950000e+00 0.000000e+00
-7.900000e+00 0.000000e+00
-7.850000e+00 0.000000e+00
-7.800000e+00 0.000000e+00
-7.750000e+00 0.000000e+00
-7.700000e+00 0.000000e+00
-7.650000e+00 0.000000e+00
-7.600000e+00 0.000000e+00
-7.550000e+00 0.000000e+00
-7.500000e+00 0.000000e+00
-7.450000e+00 0.000000e+00
-7.400000e+00 0.000000e+00
-7.350000e+00 0.000000e+00
-7.300000e+00 0.000000e+00
-7.250000e+00 0.000000e+00
-7.200000e+00 0.000000e+00
-7.150000e+00 0.000000e+00
-7.100000e+00 0.000000e+00
-7.050000e+00 0.000000e+00
-7.000000e+00 0.000000e+00
-6.950000e+00 0.000000e+00
-6.900000e+00 0.000000e+00
-6.850000e+00 0.000000e+00
-6.800000e+00 0.000000e+00
-6.750000e+00 0.000000e+00
-6.700000e+00 0.000000e+00
-6.650000e+00 0.000000e+00
-6.600000e+00 0.000000e+00
-6.550000e+00 0.000000e+00
-6.500000e+00 0.000000e+00
-6.450000e+00 0.000000e+00
-6.400000e+00 0.000000e+00
-6.350000e+00 0.000000e+00
-6.300000e+00 0.000000e+00
-6.250000e+00 0.000000e+00
-6.200000e+00 0.000000e+00
-6.150000e+00 0.000000e+00
-6.100000e+00 0.000000e+00
-6.050000e+00 0.000000e+00
-6.000000e+00 0.000000e+00
-5.950000e+00 0.000000e+00
-5.900000e+00 0.000000e+00
-5.850000e+00 0.000000e+00
-5.800000e+00 0.000000e+00
-5.750000e+00 0.000000e+00
-5.700000e+00 0.000000e+00
-5.650000e+00 0.000000e+00
-5.600000e+00 0.000000e+00
-5.550000e+00 0.000000e+00
-5.500000e+00 0.000000e+00
-5.450000e+00 0.000000e+00
-5.400000e+00 0.000000e+00
-5.350000e+00 0.000000e+00
-5.300000e+00 0.000000e+00
-5.250000e+00 0.000000e+00
-5.200000e+00 0.000000e+00
-5.150000e+00 0.000000e+00
-5.100000e+00 0.000000e+00
-5.050000e+00 0.000000e+00
-5.000000e+00 0.000000e+00
-4.950000e+00 0.000000e+00
-4.900000e+00 0.000000e+00
-4.850000e+00 0.000000e+00
-4.800000e+00 0.000000e+00
-4.750000e+00 0.000000e+00
-4.700000e+00 0.000000e+00
-4.650000e+00 0.000000e+00
-4.600000e+00 0.000000e+00
-4.550000e+00 0.000000e+00
-4.500000e+00 0.000000e+00
-4.450000e+00 0.000000e+00
-4.400000e+00 0.000000e+00
-4.350000e+00 0.000000e+00
-4.300000e+00 0.000000e+00
-4.250000e+00 0.000000e+00
-4.200000e+00 0.000000e+00
-4.150000e+00 0.000000e+00
-4.100000e+00 0.000000e+00
-4.050000e+00 0.000000e+00
-4.000000e+00 0.000000e+00
-3.950000e+00 0.000000e+00
-3.900000e+00 0.000000e+00
-3.850000e+00 0.000000e+00
-3.800000e+00 0.000000e+00
-3.750000e+00 0.000000e+00
-3.700000e+00 0.000000e+00
-3.650000e+00 0.000000e+00
-3.600000e+00 0.000000e+00
-3.550000e+00 0.000000e+00
-3.500000e+00 0.000000e+00
-3.450000e+00 0.000000e+00
-3.400000e+00 0.000000e+00
-3.350000e+00 0.000000e+00
-3.300000e+00 0.000000e+00
-3.250000e+00 0.000000e+00
-3.200000e+00 0.000000e+00
-3.150000e+00 0.000000e+00
-3.100000e+00 0.000000e+00
-3.050000e+00 -2.802597e-45
-3.000000e+00 -1.401298e-45
-2.950000e+00 1.401298e-45
-2.900000e+00 7.006492e-45
-2.850000e+00 1.401298e-45
-2.800000e+00 -1.821688e-44
-2.750000e+00 -4.063766e-44
-2.700000e+00 -2.522337e-44
-2.650000e+00 1.961818e-44
-2.600000e+00 3.082857e-44
-2.550000e+00 -1.555441e-43
-2.500000e+00 -4.231921e-43
-2.450000e+00 -4.035740e-43
-2.400000e+00 6.123674e-43
-2.350000e+00 2.244880e-42
-2.300000e+00 2.429852e-42
-2.250000e+00 -1.831497e-42
-2.200000e+00 -9.980048e-42
-2.150000e+00 -1.343004e-41
-2.100000e+00 1.469962e-42
-2.050000e+00 3.696765e-41
-2.000000e+00 6.293091e-41
-1.950000e+00 2.057386e-41
-1.900000e+00 -1.187642e-40
-1.850000e+00 -2.617387e-40
-1.800000e+00 -1.769644e-40
-1.750000e+00 3.148241e-40
-1.700000e+00 9.760829e-40
-1.650000e+00 9.749632e-40
-1.600000e+00 -5.701043e-40
-1.550000e+00 -3.254673e-39
-1.500000e+00 -4.366439e-39
-1.450000e+00 -1.820875e-40
-1.400000e+00 9.544825e-39
-1.350000e+00 1.691447e-38
-1.300000e+00 7.963418e-39
-1.250000e+00 -2.359019e-38
-1.200000e+00 -5.789036e-38
-1.150000e+00 -4.785833e-38
-1.100000e+00 4.300669e-38
-1.050000e+00 1.755190e-37
-1.000000e+00 2.068121e-37
-9.499998e-01 -1.930648e-38
-9.000001e-01 -4.649625e-37
-8.499999e-01 -7.437121e-37
-7.999997e-01 -2.926929e-37
-7.500000e-01 1.030270e-36
-6.999998e-01 2.318916e-36
-6.500001e-01 1.794741e-36
-5.999999e-01 -1.653280e-36
-5.499997e-01 -6.317328e-36
-5.000000e-01 -7.214790e-36
-4.499998e-01 4.450042e-37
-4.000001e-01 1.478350e-35
-3.499999e-01 2.350695e-35
-2.999997e-01 1.028135e-35
-2.500000e-01 -2.793884e-35
-1.999998e-01 -6.523247e-35
-1.500001e-01 -5.414619e-35
-9.999990e-02 3.334828e-35
-4.999971e-02 1.545731e-34
0.000000e+00 1.899320e-34
5.000019e-02 2.621046e-35
1.000004e-01 -3.011198e-34
1.500006e-01 -5.333853e-34
1.999998e-01 -3.241788e-34
2.500000e-01 4.186322e-34
3.000002e-01 1.237339e-33
3.500004e-01 1.256373e-33
4.000006e-01 -1.103094e-34
4.499998e-01 -2.297921e-33
5.000000e-01 -3.458559e-33
5.500002e-01 -1.681022e-33
6.000004e-01 2.960050e-33
6.500006e-01 7.307635e-33
6.999998e-01 6.744680e-33
7.500000e-01 -7.331986e-34
8.000002e-01 -1.114156e-32
8.500004e-01 -1.584470e-32
9.000006e-01 -8.364979e-33
9.499998e-01 8.380006e-33
1.000000e+00 2.226093e-32
1.050000e+00 2.217972e-32
1.100000e+00 9.873563e-33
1.150001e+00 -1.363088e-33
1.200000e+00 -5.555301e-33
1.250000e+00 -2.166178e-32
1.300000e+00 -7.787331e-32
1.350000e+00 -1.549139e-31
1.400001e+00 -1.397267e-31
1.450000e+00 1.191613e-31
1.500000e+00 6.176074e-31
1.550000e+00 9.889664e-31
1.600000e+00 5.641868e-31
1.650001e+00 -1.087842e-30
1.700000e+00 -3.334725e-30
1.750000e+00 -4.118620e-30
1.800000e+00 -9.620147e-31
1.850000e+00 6.537215e-30
1.900001e+00 1.422499e-29
1.950000e+00 1.376150e-29
2.000000e+00 -2.018878e-30
2.050000e+00 -3.026131e-29
2.100000e+00 -5.230109e-29
2.150001e+00 -3.965736e-29
2.200000e+00 2.469181e-29
2.250000e+00 1.192596e-28
2.300000e+00 1.741836e-28
2.350000e+00 1.021034e-28
2.400001e+00 -1.291788e-28
2.450000e+00 -4.217479e-28
2.500000e+00 -5.417819e-28
2.550000e+00 -2.403822e-28
2.600000e+00 5.209536e-28
2.650001e+00 1.377615e-27
2.700000e+00 1.606453e-27
2.750000e+00 5.346338e-28
2.800000e+00 -1.808940e-27
2.850000e+00 -4.226350e-27
2.900001e+00 -4.614324e-27
2.950000e+00 -1.212038e-27
3.000000e+00 5.621587e-27
3.050000e+00 1.231102e-26
3.100000e+00 1.302918e-26
3.150001e+00 3.195633e-27
3.200000e+00 -1.587547e-26
3.250000e+00 -3.434808e-26
3.300000e+00 -3.663448e-26
3.350000e+00 -1.052106e-26
3.400001e+00 4.093009e-26
3.450000e+00 9.251325e-26
3.500000e+00 1.033440e-25
3.550000e+00 3.936952e-26
3.600000e+00 -9.604821e-26
3.650001e+00 -2.420540e-25
3.700000e+00 -2.920806e-25
3.750000e+00 -1.474827e-25
3.800000e+00 2.022411e-25
3.850000e+00 6.168999e-25
3.900001e+00 8.188840e-25
3.950000e+00 5.195178e-25
4.000000e+00 -3.665665e-25
4.050000e+00 -1.527673e-24
4.100000e+00 -2.244871e-24
4.150001e+00 -1.691034e-24
4.200000e+00 4.966446e-25
4.250000e+00 3.645867e-24
4.300000e+00 5.930817e-24
4.350000e+00 5.082906e-24
4.400001e+00 -1.179869e-25
4.450000e+00 -8.273819e-24
4.500000e+00 -1.491121e-23
4.550000e+00 -1.415127e-23
4.600000e+00 -2.423471e-24
4.650001e+00 1.752417e-23
4.700000e+00 3.527659e-23
4.750000e+00 3.654698e-23
4.800000e+00 1.190478e-23
4.850000e+00 -3.371435e-23
4.900001e+00 -7.756965e-23
4.950000e+00 -8.731287e-23
5.000000e+00 -4.017164e-23
5.050000e+00 5.617138e-23
5.100000e+00 1.557642e-22
5.150001e+00 1.910478e-22
5.200000e+00 1.119614e-22
5.250000e+00 -7.205618e-23
5.300000e+00 -2.765485e-22
5.350000e+00 -3.739686e-22
5.400001e+00 -2.666830e-22
5.450000e+00 3.772907e-23
5.500000e+00 4.021337e-22
5.550000e+00 6.186698e-22
5.600000e+00 5.305604e-22
5.650001e+00 1.436776e-22
5.700000e+00 -3.568342e-22
5.750000e+00 -7.161477e-22
5.800000e+00 -7.815711e-22
5.850000e+00 -6.028656e-22
5.900001e+00 -3.547471e-22
5.950000e+00 -1.132628e-22
6.000000e+00 3.165502e-22
6.050000e+00 1.279032e-21
6.100000e+00 2.792954e-21
6.150001e+00 4.021963e-21
6.200000e+00 3.269480e-21
6.250000e+00 -1.044793e-21
6.300000e+00 -8.630003e-21
6.350000e+00 -1.590834e-20
6.400001e+00 -1.653590e-20
6.450000e+00 -4.797800e-21
6.500000e+00 1.909956e-20
6.550000e+00 4.507917e-20
6.600000e+00 5.472178e-20
6.650001e+00 3.040984e-20
6.700000e+00 -3.064272e-20
6.750000e+00 -1.055899e-19
6.800000e+00 -1.484355e-19
6.850000e+00 -1.110707e-19
6.900001e+00 2.305459e-20
6.950000e+00 2.108496e-19
7.000000e+00 3.501208e-19
7.050000e+00 3.221036e-19
7.100000e+00 6.567698e-20
7.150001e+00 -3.540135e-19
7.200000e+00 -7.324634e-19
7.250000e+00 -8.016028e-19
7.300000e+00 -3.812990e-19
7.350000e+00 4.635516e-19
7.400001e+00 1.363325e-18
7.450000e+00 1.761161e-18
7.500000e+00 1.201453e-18
7.550000e+00 -3.331760e-19
7.600000e+00 -2.239851e-18
7.650001e+00 -3.449103e-18
7.700000e+00 -2.942614e-18
7.750000e+00 -4.319456e-19
7.800000e+00 3.190923e-18
7.850000e+00 6.016356e-18
7.900001e+00 6.010502e-18
7.950000e+00 2.303806e-18
8.000000e+00 -3.857412e-18
8.050001e+00 -9.266071e-18
8.100000e+00 -1.029337e-17
8.150000e+00 -5.209418e-18
8.200001e+00 4.094645e-18
8.250000e+00 1.242084e-17
8.300001e+00 1.405799e-17
8.350000e+00 6.788620e-18
8.400000e+00 -5.544279e-18
8.450001e+00 -1.440464e-17
8.500000e+00 -1.214242e-17
8.550001e+00 1.271269e-18
8.600000e+00 1.559459e-17
8.650000e+00 1.570755e-17
8.700001e+00 -6.209068e-18
8.750000e+00 -3.945541e-17
8.800001e+00 -5.510952e-17
8.850000e+00 -2.336950e-17
8.900000e+00 5.880132e-17
8.950001e+00 1.489269e-16
9.000000e+00 1.704089e-16
9.050001e+00 6.009928e-17
9.100000e+00 -1.697798e-16
9.150000e+00 -4.003495e-16
9.200001e+00 -4.471112e-16
9.250000e+00 -1.755011e-16
9.300001e+00 3.668272e-16
9.350000e+00 8.994445e-16
9.400000e+00 1.018281e-15
9.450001e+00 4.502143e-16
9.500000e+00 -6.821820e-16
9.550001e+00 -1.786600e-15
9.600000e+00 -2.053407e-15
9.650000e+00 -9.725121e-16
9.700001e+00 1.175341e-15
9.750000e+00 3.234673e-15
9.800001e+00 3.712503e-15
9.850000e+00 1.755711e-15
9.900000e+00 -2.011172e-15
9.950001e+00 -5.463397e-15
1.000000e+01 -6.057129e-15
1.005000e+01 -2.563468e-15
1.010000e+01 3.636400e-15
1.015000e+01 8.804113e-15
1.020000e+01 8.929712e-15
1.025000e+01 2.631369e-15
1.030000e+01 -7.080091e-15
1.035000e+01 -1.384485e-14
1.040000e+01 -1.183311e-14
1.045000e+01 -3.216096e-16
1.050000e+01 1.433837e-14
1.055000e+01 2.163094e-14
1.060000e+01 1.383196e-14
1.065000e+01 -7.196223e-15
1.070000e+01 -2.868904e-14
1.075000e+01 -3.376563e-14
1.080000e+01 -1.341207e-14
1.085000e+01 2.413508e-14
1.090000e+01 5.466613e-14
1.095000e+01 5.207400e-14
1.100000e+01 8.059386e-15
1.105000e+01 -5.614696e-14
1.110000e+01 -9.741232e-14
1.115000e+01 -7.737922e-14
1.120000e+01 6.860221e-15
1.125000e+01 1.104481e-13
1.130000e+01 1.613283e-13
1.135000e+01 1.070967e-13
1.140000e+01 -4.028654e-14
1.145000e+01 -1.963488e-13
1.150000e+01 -2.483128e-13
1.155000e+01 -1.319379e-13
1.160000e+01 1.084675e-13
1.165000e+01 3.261712e-13
1.170000e+01 3.560885e-13
1.175000e+01 1.328613e-13
1.180000e+01 -2.372308e-13
1.185000e+01 -5.152704e-13
1.190000e+01 -4.764359e-13
1.195000e+01 -7.976175e-14
1.200000e+01 4.605676e-13
1.205000e+01 7.777812e-13
1.210000e+01 5.910673e-13
1.215000e+01 -6.800099e-14
1.220000e+01 -8.126994e-13
1.225000e+01 -1.113327e-12
1.230000e+01 -6.600252e-13
1.235000e+01 3.629651e-13
1.240000e+01 1.314701e-12
1.245000e+01 1.482500e-12
1.250000e+01 5.971584e-13
1.255000e+01 -8.809652e-13
1.260000e+01 -1.965132e-12
1.265000e+01 -1.779251e-12
1.270000e+01 -2.356425e-13
1.275000e+01 1.748795e-12
1.280000e+01 2.752075e-12
1.285000e+01 1.826196e-12
1.290000e+01 -6.900876e-13
1.295000e+01 -3.173635e-12
1.300000e+01 -3.695610e-12
1.305000e+01 -1.430490e-12
1.310000e+01 2.485793e-12
1.315000e+01 5.409595e-12
1.320000e+01 4.877352e-12
1.325000e+01 5.032365e-13
1.330000e+01 -5.298271e-12
1.335000e+01 -8.539810e-12
1.340000e+01 -6.303436e-12
1.345000e+01 8.973941e-13
1.350000e+01 8.843414e-12
1.355000e+01 1.201384e-11
1.360000e+01 7.379229e-12
1.365000e+01 -2.970411e-12
1.370000e+01 -1.250628e-11
1.375000e+01 -1.431809e-11
1.380000e+01 -6.124028e-12
1.385000e+01 7.315348e-12
1.390000e+01 1.660987e-11
1.395000e+01 1.400687e-11
1.400000e+01 -4.907114e-13
1.405000e+01 -1.773454e-11
1.410000e+01 -2.462749e-11
1.415000e+01 -1.320615e-11
1.420000e+01 1.241962e-11
1.425000e+01 3.673718e-11
1.430000e+01 4.190926e-11
1.435000e+01 2.005767e-11
1.440000e+01 -1.958476e-11
1.445000e+01 -5.452891e-11
1.450000e+01 -6.266861e-11
1.455000e+01 -3.726263e-11
1.460000e+01 7.260341e-12
1.465000e+01 4.388538e-11
1.470000e+01 5.136370e-11
1.475000e+01 2.995761e-11
1.480000e+01 2.529906e-12
1.485000e+01 -1.771502e-12
1.490000e+01 2.869041e-11
1.495000e+01 7.384413e-11
1.500000e+01 8.994056e-11
1.505000e+01 3.797375e-11
1.510000e+01 -8.467834e-11
1.515000e+01 -2.316918e-10
1.520000e+01 -3.264180e-10
1.525000e+01 -3.035829e-10
1.530000e+01 -1.489841e-10
1.535000e+01 8.911082e-11
1.540000e+01 3.260030e-10
1.545000e+01 4.879812e-10
1.550000e+01 5.491495e-10
1.555000e+01 5.315290e-10
1.560000e+01 4.678424e-10
1.565000e+01 3.549669e-10
1.570000e+01 1.368368e-10
1.575000e+01 -2.615659e-10
1.580000e+01 -8.634484e-10
1.585000e+01 -1.577771e-09
1.590000e+01 -2.192768e-09
1.595000e+01 -2.442128e-09
1.600000e+01 -2.114242e-09
1.605000e+01 -1.144505e-09
1.610000e+01 3.615108e-10
1.615000e+01 2.182534e-09
1.620000e+01 4.071430e-09
1.625000e+01 5.815914e-09
1.630000e+01 7.229874e-09
1.635000e+01 8.090754e-09
1.640000e+01 8.086262e-09
1.645000e+01 6.836228e-09
1.650000e+01 4.005664e-09
1.655000e+01 -5.458604e-10
1.660000e+01 -6.674807e-09
1.665000e+01 -1.399773e-08
1.670000e+01 -2.206396e-08
1.675000e+01 -3.056759e-08
1.680000e+01 -3.947871e-08
1.685000e+01 -4.902232e-08
1.690000e+01 -5.953361e-08
1.695000e+01 -7.130244e-08
1.700000e+01 -8.452702e-08
1.705000e+01 -9.941571e-08
1.710000e+01 -1.163620e-07
1.715000e+01 -1.360496e-07
1.720000e+01 -1.593808e-07
1.725000e+01 -1.872409e-07
1.730000e+01 -2.202404e-07
1.735000e+01 -2.586189e-07
1.740000e+01 -3.024065e-07
1.745000e+01 -3.517779e-07
1.750000e+01 -4.073996e-07
1.755000e+01 -4.705634e-07
1.760000e+01 -5.430284e-07
1.765000e+01 -6.266846e-07
1.770000e+01 -7.232669e-07
1.775000e+01 -8.343194e-07
1.780000e+01 -9.614280e-07
1.785000e+01 -1.106555e-06
1.790000e+01 -1.272224e-06
1.795000e+01 -1.461422e-06
1.800000e+01 -1.677271e-06
1.805000e+01 -1.922732e-06
1.810000e+01 -2.200590e-06
1.815000e+01 -2.513809e-06
1.820000e+01 -2.866082e-06
1.825000e+01 -3.262254e-06
1.830000e+01 -3.708351e-06
1.835000e+01 -4.211191e-06
1.840000e+01 -4.777823e-06
1.845000e+01 -5.415186e-06
1.850000e+01 -6.130196e-06
1.855000e+01 -6.930235e-06
1.860000e+01 -7.823747e-06
1.865000e+01 -8.820563e-06
1.870000e+01 -9.931781e-06
1.875000e+01 -1.116933e-05
1.880000e+01 -1.254557e-05
1.885000e+01 -1.407323e-05
1.890000e+01 -1.576575e-05
1.895000e+01 -1.763776e-05
1.900000e+01 -1.970556e-05
1.905000e+01 -2.198701e-05
1.910000e+01 -2.450122e-05
1.915000e+01 -2.726807e-05
1.920000e+01 -3.030803e-05
1.925000e+01 -3.364231e-05
1.930000e+01 -3.729325e-05
1.935000e+01 -4.128472e-05
1.940000e+01 -4.564203e-05
1.945000e+01 -5.039170e-05
1.950000e+01 -5.556102e-05
1.955000e+01 -6.117794e-05
1.960000e+01 -6.727113e-05
1.965000e+01 -7.387037e-05
1.970000e+01 -8.100666e-05
1.975000e+01 -8.871200e-05
1.980000e+01 -9.701858e-05
1.985000e+01 -1.059582e-04
1.990000e+01 -1.155618e-04
1.995000e+01 -1.258595e-04
2.000000e+01 -1.368812e-04
2.005000e+01 -1.486567e-04
2.010000e+01 -1.612155e-04
2.015000e+01 -1.745867e-04
2.020000e+01 -1.887974e-04
2.025000e+01 -2.038722e-04
2.030000e+01 -2.198323e-04
2.035000e+01 -2.366965e-04
2.040000e+01 -2.544805e-04
2.045000e+01 -2.731970e-04
2.050000e+01 -2.928548e-04
2.055000e+01 -3.134581e-04
2.060000e+01 -3.350052e-04
2.065000e+01 -3.574879e-04
2.070000e+01 -3.808915e-04
2.075000e+01 -4.051962e-04
2.080000e+01 -4.303761e-04
2.085000e+01 -4.563990e-04
2.090000e+01 -4.832255e-04
2.095000e+01 -5.108068e-04
2.100000e+01 -5.390841e-04
2.105000e+01 -5.679884e-04
2.110000e+01 -5.974411e-04
2.115000e+01 -6.273540e-04
2.120000e+01 -6.576309e-04
2.125000e+01 -6.881665e-04
2.130000e+01 -7.188469e-04
2.135000e+01 -7.495472e-04
2.140000e+01 -7.801328e-04
2.145000e+01 -8.104575e-04
2.150000e+01 -8.403655e-04
2.155000e+01 -8.696916e-04
2.160000e+01 -8.982625e-04
2.165000e+01 -9.258968e-04
2.170000e+01 -9.524068e-04
2.175000e+01 -9.775985e-04
2.180000e+01 -1.001270e-03
2.185000e+01 -1.023218e-03
2.190000e+01 -1.043229e-03
2.195000e+01 -1.061094e-03
2.200000e+01 -1.076597e-03
2.205000e+01 -1.089524e-03
2.210000e+01 -1.099665e-03
2.215000e+01 -1.106809e-03
2.220000e+01 -1.110752e-03
2.225000e+01 -1.111298e-03
2.230000e+01 -1.108255e-03
2.235000e+01 -1.101445e-03
2.240000e+01 -1.090696e-03
2.245000e+01 -1.075855e-03
2.250000e+01 -1.056781e-03
2.255000e+01 -1.033349e-03
2.260000e+01 -1.005456e-03
2.265000e+01 -9.730157e-04
2.270000e+01 -9.359648e-04
2.275000e+01 -8.942605e-04
2.280000e+01 -8.478870e-04
2.285000e+01 -7.968534e-04
2.290000e+01 -7.411955e-04
2.295000e+01 -6.809771e-04
2.300000e+01 -6.162902e-04
2.305000e+01 -5.472547e-04
2.310000e+01 -4.740187e-04
2.315000e+01 -3.967584e-04
2.320000e+01 -3.156786e-04
2.325000e+01 -2.310134e-04
2.330000e+01 -1.430252e-04
2.335000e+01 -5.200453e-05
2.340000e+01 4.173195e-05
2.345000e+01 1.378432e-04
2.350000e+01 2.359664e-04
2.355000e+01 3.357181e-04
2.360000e+01 4.366971e-04
2.365000e+01 5.384847e-04
2.370000e+01 6.406484e-04
2.375000e+01 7.427416e-04
2.380000e+01 8.443088e-04
2.385000e+01 9.448864e-04
2.390000e+01 1.044009e-03
2.395000e+01 1.141212e-03
2.400000e+01 1.236032e-03
2.405000e+01 1.328016e-03
2.410000e+01 1.416715e-03
2.415000e+01 1.501696e-03
2.420000e+01 1.582540e-03
2.425000e+01 1.658843e-03
2.430000e+01 1.730224e-03
2.435000e+01 1.796328e-03
2.440000e+01 1.856823e-03
2.445000e+01 1.911411e-03
2.450000e+01 1.959820e-03
2.455000e+01 2.001814e-03
2.460000e+01 2.037192e-03
2.465000e+01 2.065789e-03
2.470000e+01 2.087475e-03
2.475000e+01 2.102161e-03
2.480000e+01 2.109795e-03
2.485000e+01 2.110364e-03
2.490000e+01 2.103896e-03
2.495000e+01 2.090457e-03
2.500000e+01 2.070150e-03
2.505000e+01 2.043117e-03
2.510000e+01 2.009538e-03
2.515000e+01 1.969623e-03
2.520000e+01 1.923619e-03
2.525000e+01 1.871803e-03
2.530000e+01 1.814479e-03
2.535000e+01 1.751979e-03
2.540000e+01 1.684657e-03
2.545000e+01 1.612891e-03
2.550000e+01 1.537072e-03
2.555000e+01 1.457614e-03
2.560000e+01 1.374936e-03
2.565000e+01 1.289473e-03
2.570000e+01 1.201662e-03
2.575000e+01 1.111947e-03
2.580000e+01 1.020770e-03
2.585000e+01 9.285706e-04
2.590000e+01 8.357827e-04
2.595000e+01 7.428331e-04
2.600000e+01 6.501362e-04
2.605000e+01 5.580948e-04
2.610000e+01 4.670955e-04
2.615000e+01 3.775079e-04
2.620000e+01 2.896819e-04
2.625000e+01 2.039461e-04
2.630000e+01 1.206064e-04
2.635000e+01 3.994536e-05
2.640000e+01 -3.777914e-05
2.645000e+01 -1.123344e-04
2.650000e+01 -1.835132e-04
2.655000e+01 -2.511356e-04
2.660000e+01 -3.150485e-04
2.665000e+01 -3.751265e-04
2.670000e+01 -4.312707e-04
2.675000e+01 -4.834084e-04
2.680000e+01 -5.314913e-04
2.685000e+01 -5.754954e-04
2.690000e+01 -6.154185e-04
2.695000e+01 -6.512814e-04
2.700000e+01 -6.831254e-04
2.705000e+01 -7.110119e-04
2.710000e+01 -7.350220e-04
2.715000e+01 -7.552533e-04
2.720000e+01 -7.718200e-04
2.725000e+01 -7.848504e-04
2.730000e+01 -7.944845e-04
2.735000e+01 -8.008740e-04
2.740000e+01 -8.041768e-04
2.745000e+01 -8.045593e-04
2.750000e+01 -8.021930e-04
2.755000e+01 -7.972554e-04
2.760000e+01 -7.899274e-04
2.765000e+01 -7.803923e-04
2.770000e+01 -7.688343e-04
2.775000e+01 -7.554364e-04
2.780000e+01 -7.403785e-04
2.785000e+01 -7.238380e-04
2.790000e+01 -7.059881e-04
2.795000e+01 -6.869973e-04
2.800000e+01 -6.670291e-04
2.805000e+01 -6.462416e-04
2.810000e+01 -6.247850e-04
2.815000e+01 -6.028020e-04
2.820000e+01 -5.804280e-04
2.825000e+01 -5.577912e-04
2.830000e+01 -5.350116e-04
2.835000e+01 -5.122008e-04
2.840000e+01 -4.894617e-04
2.845000e+01 -4.668880e-04
2.850000e+01 -4.445646e-04
2.855000e+01 -4.225686e-04
2.860000e+01 -4.009699e-04
2.865000e+01 -3.798308e-04
2.870000e+01 -3.592063e-04
2.875000e+01 -3.391431e-04
2.880000e+01 -3.196808e-04
2.885000e+01 -3.008514e-04
2.890000e+01 -2.826812e-04
2.895000e+01 -2.651912e-04
2.900000e+01 -2.483967e-04
2.905000e+01 -2.323080e-04
2.910000e+01 -2.169305e-04
2.915000e+01 -2.022650e-04
2.920000e+01 -1.883088e-04
2.925000e+01 -1.750557e-04
2.930000e+01 -1.624967e-04
2.935000e+01 -1.506195e-04
2.940000e+01 -1.394089e-04
2.945000e+01 -1.288473e-04
