-8.000000e+00 0.000000e+00
-7.990000e+00 0.000000e+00
-7.980000e+00 0.000000e+00
-7.970000e+00 0.000000e+00
-7.960000e+00 0.000000e+00
-7.950000e+00 0.000000e+00
-7.940000e+00 0.000000e+00
-7.930000e+00 0.000000e+00
-7.920000e+00 0.000000e+00
-7.910000e+00 0.000000e+00
-7.900000e+00 0.000000e+00
-7.890000e+00 0.000000e+00
-7.880000e+00 0.000000e+00
-7.870000e+00 0.000000e+00
-7.860000e+00 0.000000e+00
-7.850000e+00 0.000000e+00
-7.840000e+00 0.000000e+00
-7.830000e+00 0.000000e+00
-7.820000e+00 0.000000e+00
-7.810000e+00 0.000000e+00
-7.800000e+00 0.000000e+00
-7.790000e+00 0.000000e+00
-7.780000e+00 0.000000e+00
-7.770000e+00 0.000000e+00
-7.760000e+00 0.000000e+00
-7.750000e+00 0.000000e+00
-7.740000e+00 0.000000e+00
-7.730000e+00 0.000000e+00
-7.720000e+00 0.000000e+00
-7.710000e+00 0.000000e+00
-7.700000e+00 0.000000e+00
-7.690000e+00 0.000000e+00
-7.680000e+00 0.000000e+00
-7.670000e+00 0.000000e+00
-7.660000e+00 0.000000e+00
-7.650000e+00 0.000000e+00
-7.640000e+00 0.000000e+00
-7.630000e+00 0.000000e+00
-7.620000e+00 -4.203895e-45
-7.610000e+00 -5.605194e-45
-7.600000e+00 -1.821688e-44
-7.590000e+00 -3.643376e-44
-7.580000e+00 -7.426882e-44
-7.570000e+00 -1.471363e-43
-7.560000e+00 -2.802597e-43
-7.550000e+00 -5.352960e-43
-7.540000e+00 -9.935206e-43
-7.530000e+00 -1.814682e-42
-7.520000e+00 -3.272032e-42
-7.510000e+00 -5.826599e-42
-7.500000e+00 -1.022387e-41
-7.490000e+00 -1.773764e-41
-7.480000e+00 -3.038856e-41
-7.470000e+00 -5.149351e-41
-7.460000e+00 -8.627514e-41
-7.450000e+00 -1.430053e-40
-7.440000e+00 -2.345816e-40
-7.430000e+00 -3.809486e-40
-7.420000e+00 -6.125916e-40
-7.410000e+00 -9.757451e-40
-7.400000e+00 -1.539888e-39
-7.390000e+00 -2.408427e-39
-7.380000e+00 -3.733977e-39
-7.370000e+00 -5.739885e-39
-7.360000e+00 -8.750226e-39
-7.350000e+00 -1.323148e-38
-7.340000e+00 -1.984964e-38
-7.330000e+00 -2.954809e-38
-7.320000e+00 -4.365292e-38
-7.310000e+00 -6.401377e-38
-7.300000e+00 -9.319147e-38
-7.290000e+00 -1.347050e-37
-7.280000e+00 -1.933549e-37
-7.270000e+00 -2.756423e-37
-7.260000e+00 -3.903089e-37
-7.250000e+00 -5.490254e-37
-7.240000e+00 -7.672637e-37
-7.230000e+00 -1.065390e-36
-7.220000e+00 -1.470027e-36
-7.210000e+00 -2.015736e-36
-7.200000e+00 -2.747065e-36
-7.190000e+00 -3.721043e-36
-7.180000e+00 -5.010163e-36
-7.170000e+00 -6.705923e-36
-7.160000e+00 -8.922990e-36
-7.150000e+00 -1.180407e-35
-7.140000e+00 -1.552538e-35
-7.130000e+00 -2.030303e-35
-7.120000e+00 -2.639996e-35
-7.110000e+00 -3.413364e-35
-7.100000e+00 -4.388431e-35
-7.090000e+00 -5.610362e-35
-7.080000e+00 -7.132337e-35
-7.070000e+00 -9.016416e-35
-7.060000e+00 -1.133431e-34
-7.050000e+00 -1.416803e-34
-7.040000e+00 -1.761037e-34
-7.030000e+00 -2.176495e-34
-7.020000e+00 -2.674605e-34
-7.010000e+00 -3.267765e-34
-7.000000e+00 -3.969189e-34
-6.990000e+00 -4.792672e-34
-6.980000e+00 -5.752224e-34
-6.970000e+00 -6.861591e-34
-6.960000e+00 -8.133619e-34
-6.950000e+00 -9.579481e-34
-6.940000e+00 -1.120762e-33
-6.930000e+00 -1.302259e-33
-6.920000e+00 -1.502361e-33
-6.910000e+00 -1.720289e-33
-6.900000e+00 -1.954375e-33
-6.890000e+00 -2.201845e-33
-6.880000e+00 -2.458591e-33
-6.870000e+00 -2.718917e-33
-6.860000e+00 -2.975282e-33
-6.850000e+00 -3.218038e-33
-6.840000e+00 -3.435174e-33
-6.830000e+00 -3.612076e-33
-6.820000e+00 -3.731343e-33
-6.810000e+00 -3.772636e-33
-6.800000e+00 -3.712621e-33
-6.790000e+00 -3.525010e-33
-6.780000e+00 -3.180732e-33
-6.770000e+00 -2.648266e-33
-6.760000e+00 -1.894169e-33
-6.750000e+00 -8.838165e-34
-6.740000e+00 4.175975e-34
-6.730000e+00 2.043785e-33
-6.720000e+00 4.025789e-33
-6.710000e+00 6.390091e-33
-6.700000e+00 9.156399e-33
-6.690000e+00 1.233513e-32
-6.680000e+00 1.592457e-32
-6.670000e+00 1.990787e-32
-6.660000e+00 2.424970e-32
-6.650000e+00 2.889297e-32
-6.640000e+00 3.375546e-32
-6.630000e+00 3.872658e-32
-6.620000e+00 4.366452e-32
-6.610000e+00 4.839387e-32
-6.600000e+00 5.270398e-32
-6.590000e+00 5.634825e-32
-6.580000e+00 5.904483e-32
-6.570000e+00 6.047856e-32
-6.560000e+00 6.030505e-32
-6.550000e+00 5.815660e-32
-6.540000e+00 5.365046e-32
-6.530000e+00 4.639975e-32
-6.520000e+00 3.602707e-32
-6.510000e+00 2.218065e-32
-6.500000e+00 4.553529e-33
-6.490000e+00 -1.709475e-32
-6.480000e+00 -4.291422e-32
-6.470000e+00 -7.293853e-32
-6.460000e+00 -1.070577e-31
-6.450000e+00 -1.449906e-31
-6.440000e+00 -1.862577e-31
-6.430000e+00 -2.301560e-31
-6.420000e+00 -2.757365e-31
-6.410000e+00 -3.217870e-31
-6.400000e+00 -3.668213e-31
-6.390000e+00 -4.090762e-31
-6.380000e+00 -4.465199e-31
-6.370000e+00 -4.768718e-31
-6.360000e+00 -4.976344e-31
-6.350000e+00 -5.061459e-31
-6.340000e+00 -4.996434e-31
-6.330000e+00 -4.753484e-31
-6.320000e+00 -4.305677e-31
-6.310000e+00 -3.628126e-31
-6.300000e+00 -2.699353e-31
-6.290000e+00 -1.502778e-31
-6.280000e+00 -2.833525e-33
-6.270000e+00 1.725855e-31
-6.260000e+00 3.751797e-31
-6.250000e+00 6.029988e-31
-6.240000e+00 8.527900e-31
-6.230000e+00 1.119872e-30
-6.220000e+00 1.398036e-30
-6.210000e+00 1.679493e-30
-6.200000e+00 1.954867e-30
-6.190000e+00 2.213260e-30
-6.180000e+00 2.442383e-30
-6.170000e+00 2.628772e-30
-6.160000e+00 2.758086e-30
-6.150000e+00 2.815506e-30
-6.140000e+00 2.786228e-30
-6.130000e+00 2.656041e-30
-6.120000e+00 2.411997e-30
-6.110000e+00 2.043153e-30
-6.100000e+00 1.541375e-30
-6.090000e+00 9.021636e-31
-6.080000e+00 1.254986e-31
-6.070000e+00 -7.833500e-31
-6.060000e+00 -1.813083e-30
-6.050000e+00 -2.945745e-30
-6.040000e+00 -4.156254e-30
-6.030000e+00 -5.412157e-30
-6.020000e+00 -6.673630e-30
-6.010000e+00 -7.893801e-30
-6.000000e+00 -9.019447e-30
-5.990000e+00 -9.992039e-30
-5.980000e+00 -1.074926e-29
-5.970000e+00 -1.122693e-29
-5.960000e+00 -1.136137e-29
-5.950000e+00 -1.109216e-29
-5.940000e+00 -1.036529e-29
-5.930000e+00 -9.136579e-30
-5.920000e+00 -7.375310e-30
-5.910000e+00 -5.067900e-30
-5.900000e+00 -2.221530e-30
-5.890000e+00 1.132514e-30
-5.880000e+00 4.935934e-30
-5.870000e+00 9.101214e-30
-5.860000e+00 1.351028e-29
-5.850000e+00 1.801433e-29
-5.840000e+00 2.243495e-29
-5.830000e+00 2.656689e-29
-5.820000e+00 3.018242e-29
-5.810000e+00 3.303767e-29
-5.800000e+00 3.488075e-29
-5.790000e+00 3.546185e-29
-5.780000e+00 3.454517e-29
-5.770000e+00 3.192218e-29
-5.760000e+00 2.742651e-29
-5.750000e+00 2.094936e-29
-5.740000e+00 1.245531e-29
-5.730000e+00 1.997710e-30
-5.720000e+00 -1.026719e-29
-5.710000e+00 -2.406816e-29
-5.700000e+00 -3.901005e-29
-5.690000e+00 -5.456881e-29
-5.680000e+00 -7.009168e-29
-5.670000e+00 -8.480349e-29
-5.660000e+00 -9.781975e-29
-5.650000e+00 -1.081676e-28
-5.640000e+00 -1.148149e-28
-5.630000e+00 -1.167074e-28
-5.620000e+00 -1.128152e-28
-5.610000e+00 -1.021859e-28
-5.600000e+00 -8.400580e-29
-5.590000e+00 -5.766507e-29
-5.580000e+00 -2.282801e-29
-5.570000e+00 2.049722e-29
-5.560000e+00 7.189002e-29
-5.550000e+00 1.304554e-28
-5.540000e+00 1.947707e-28
-5.530000e+00 2.628476e-28
-5.520000e+00 3.321116e-28
-5.510000e+00 3.994053e-28
-5.500000e+00 4.610181e-28
-5.490000e+00 5.127495e-28
-5.480000e+00 5.500035e-28
-5.470000e+00 5.679234e-28
-5.460000e+00 5.615632e-28
-5.450000e+00 5.260969e-28
-5.440000e+00 4.570631e-28
-5.430000e+00 3.506422e-28
-5.420000e+00 2.039587e-28
-5.410000e+00 1.539818e-29
-5.400000e+00 -2.150669e-28
-5.390000e+00 -4.855613e-28
-5.380000e+00 -7.920141e-28
-5.370000e+00 -1.127905e-27
-5.360000e+00 -1.484073e-27
-5.350000e+00 -1.848599e-27
-5.340000e+00 -2.206795e-27
-5.330000e+00 -2.541307e-27
-5.320000e+00 -2.832353e-27
-5.310000e+00 -3.058121e-27
-5.300000e+00 -3.195321e-27
-5.290000e+00 -3.219916e-27
-5.280000e+00 -3.108011e-27
-5.270000e+00 -2.836924e-27
-5.260000e+00 -2.386387e-27
-5.250000e+00 -1.739886e-27
-5.240000e+00 -8.860761e-28
-5.230000e+00 1.797369e-28
-5.220000e+00 1.454141e-27
-5.210000e+00 2.924226e-27
-5.200000e+00 4.566335e-27
-5.190000e+00 6.345033e-27
-5.180000e+00 8.212385e-27
-5.170000e+00 1.010764e-26
-5.160000e+00 1.195736e-26
-5.150000e+00 1.367611e-26
-5.140000e+00 1.516785e-26
-5.130000e+00 1.632783e-26
-5.120000e+00 1.704544e-26
-5.110000e+00 1.720759e-26
-5.100000e+00 1.670297e-26
-5.090000e+00 1.542687e-26
-5.080000e+00 1.328668e-26
-5.070000e+00 1.020786e-26
-5.060000e+00 6.140189e-27
-5.050000e+00 1.064167e-27
-5.040000e+00 -5.002677e-27
-5.030000e+00 -1.199992e-26
-5.020000e+00 -1.981908e-26
-5.010000e+00 -2.829937e-26
-5.000000e+00 -3.722508e-26
-4.990000e+00 -4.632432e-26
-4.980000e+00 -5.527021e-26
-4.970000e+00 -6.368418e-26
-4.960000e+00 -7.114202e-26
-4.950000e+00 -7.718264e-26
-4.940000e+00 -8.132022e-26
-4.930000e+00 -8.305871e-26
-4.920000e+00 -8.190980e-26
-4.910000e+00 -7.741344e-26
-4.900000e+00 -6.916044e-26
-4.890000e+00 -5.681738e-26
-4.880000e+00 -4.015220e-26
-4.870000e+00 -1.906040e-26
-4.860000e+00 6.409412e-27
-4.850000e+00 3.603189e-26
-4.840000e+00 6.938406e-26
-4.830000e+00 1.058288e-25
-4.820000e+00 1.445042e-25
-4.810000e+00 1.843191e-25
-4.800000e+00 2.239575e-25
-4.790000e+00 2.618926e-25
-4.780000e+00 2.964099e-25
-4.770000e+00 3.256431e-25
-4.760000e+00 3.476198e-25
-4.750000e+00 3.603206e-25
-4.740000e+00 3.617464e-25
-4.730000e+00 3.500003e-25
-4.720000e+00 3.233737e-25
-4.710000e+00 2.804424e-25
-4.700000e+00 2.201654e-25
-4.690000e+00 1.419852e-25
-4.680000e+00 4.592515e-26
-4.670000e+00 -6.731897e-26
-4.660000e+00 -1.962996e-25
-4.650000e+00 -3.387539e-25
-4.640000e+00 -4.915601e-25
-4.630000e+00 -6.507219e-25
-4.620000e+00 -8.113797e-25
-4.610000e+00 -9.678602e-25
-4.600000e+00 -1.113761e-24
-4.590000e+00 -1.242075e-24
-4.580000e+00 -1.345363e-24
-4.570000e+00 -1.415959e-24
-4.560000e+00 -1.446223e-24
-4.550000e+00 -1.428825e-24
-4.540000e+00 -1.357067e-24
-4.530000e+00 -1.225227e-24
-4.520000e+00 -1.028913e-24
-4.510000e+00 -7.654318e-25
-4.500000e+00 -4.341418e-25
-4.490000e+00 -3.678258e-26
-4.480000e+00 4.222296e-25
-4.470000e+00 9.355647e-25
-4.460000e+00 1.492818e-24
-4.450000e+00 2.080425e-24
-4.440000e+00 2.681701e-24
-4.430000e+00 3.276985e-24
-4.420000e+00 3.843912e-24
-4.410000e+00 4.357848e-24
-4.400000e+00 4.792438e-24
-4.390000e+00 5.120323e-24
-4.380000e+00 5.313987e-24
-4.370000e+00 5.346735e-24
-4.360000e+00 5.193777e-24
-4.350000e+00 4.833408e-24
-4.340000e+00 4.248239e-24
-4.330000e+00 3.426449e-24
-4.320000e+00 2.363016e-24
-4.310000e+00 1.060872e-24
-4.300000e+00 -4.680586e-25
-4.290000e+00 -2.202003e-24
-4.280000e+00 -4.108719e-24
-4.270000e+00 -6.145157e-24
-4.260000e+00 -8.257478e-24
-4.250000e+00 -1.038145e-23
-4.240000e+00 -1.244328e-23
-4.230000e+00 -1.436090e-23
-4.220000e+00 -1.604574e-23
-4.210000e+00 -1.740498e-23
-4.200000e+00 -1.834426e-23
-4.190000e+00 -1.877082e-23
-4.180000e+00 -1.859705e-23
-4.170000e+00 -1.774427e-23
-4.160000e+00 -1.614685e-23
-4.150000e+00 -1.375629e-23
-4.140000e+00 -1.054530e-23
-4.130000e+00 -6.511761e-24
-4.120000e+00 -1.682227e-24
-4.110000e+00 3.885046e-24
-4.100000e+00 1.009779e-23
-4.090000e+00 1.682832e-23
-4.080000e+00 2.391314e-23
-4.070000e+00 3.115386e-23
-4.060000e+00 3.831929e-23
-4.050000e+00 4.514919e-23
-4.040000e+00 5.135934e-23
-4.030000e+00 5.664825e-23
-4.020000e+00 6.070531e-23
-4.010000e+00 6.322048e-23
-4.000000e+00 6.389499e-23
-3.990000e+00 6.245346e-23
-3.980000e+00 5.865621e-23
-3.970000e+00 5.231280e-23
-3.960000e+00 4.329485e-23
-3.950000e+00 3.154892e-23
-3.940000e+00 1.710816e-23
-3.930000e+00 1.028342e-25
-3.920000e+00 -1.923145e-23
-3.910000e+00 -4.054786e-23
-3.900000e+00 -6.338562e-23
-3.890000e+00 -8.717068e-23
-3.880000e+00 -1.112206e-22
-3.870000e+00 -1.347537e-22
-3.860000e+00 -1.569025e-22
-3.850000e+00 -1.767323e-22
-3.840000e+00 -1.932638e-22
-3.830000e+00 -2.055010e-22
-3.820000e+00 -2.124624e-22
-3.810000e+00 -2.132161e-22
-3.800000e+00 -2.069174e-22
-3.790000e+00 -1.928487e-22
-3.780000e+00 -1.704597e-22
-3.770000e+00 -1.394072e-22
-3.760000e+00 -9.959286e-23
-3.750000e+00 -5.119747e-23
-3.740000e+00 5.289566e-24
-3.730000e+00 6.904777e-23
-3.720000e+00 1.389112e-22
-3.710000e+00 2.133640e-22
-3.700000e+00 2.905467e-22
-3.690000e+00 3.682748e-22
-3.680000e+00 4.440705e-22
-3.670000e+00 5.152084e-22
-3.660000e+00 5.787737e-22
-3.650000e+00 6.317356e-22
-3.640000e+00 6.710314e-22
-3.630000e+00 6.936633e-22
-3.620000e+00 6.968039e-22
-3.610000e+00 6.779089e-22
-3.600000e+00 6.348347e-22
-3.590000e+00 5.659556e-22
-3.580000e+00 4.702786e-22
-3.570000e+00 3.475524e-22
-3.560000e+00 1.983630e-22
-3.550000e+00 2.421476e-23
-3.540000e+00 -1.724091e-22
-3.530000e+00 -3.880108e-22
-3.520000e+00 -6.180701e-22
-3.510000e+00 -8.570699e-22
-3.500000e+00 -1.098556e-21
-3.490000e+00 -1.335232e-21
-3.480000e+00 -1.559097e-21
-3.470000e+00 -1.761614e-21
-3.460000e+00 -1.933924e-21
-3.450000e+00 -2.067087e-21
-3.440000e+00 -2.152352e-21
-3.430000e+00 -2.181460e-21
-3.420000e+00 -2.146955e-21
-3.410000e+00 -2.042511e-21
-3.400000e+00 -1.863259e-21
-3.390000e+00 -1.606096e-21
-3.380000e+00 -1.269985e-21
-3.370000e+00 -8.562102e-22
-3.360000e+00 -3.685964e-22
-3.350000e+00 1.863330e-22
-3.340000e+00 7.992633e-22
-3.330000e+00 1.458076e-21
-3.320000e+00 2.147916e-21
-3.310000e+00 2.851363e-21
-3.300000e+00 3.548692e-21
-3.290000e+00 4.218229e-21
-3.280000e+00 4.836821e-21
-3.270000e+00 5.380385e-21
-3.260000e+00 5.824550e-21
-3.250000e+00 6.145375e-21
-3.240000e+00 6.320125e-21
-3.230000e+00 6.328086e-21
-3.220000e+00 6.151413e-21
-3.210000e+00 5.775959e-21
-3.200000e+00 5.192086e-21
-3.190000e+00 4.395409e-21
-3.180000e+00 3.387460e-21
-3.170000e+00 2.176242e-21
-3.160000e+00 7.766122e-22
-3.150000e+00 -7.894741e-22
-3.140000e+00 -2.492936e-21
-3.130000e+00 -4.297745e-21
-3.120000e+00 -6.161340e-21
-3.110000e+00 -8.035273e-21
-3.100000e+00 -9.866102e-21
-3.090000e+00 -1.159653e-20
-3.080000e+00 -1.316674e-20
-3.070000e+00 -1.451598e-20
-3.060000e+00 -1.558428e-20
-3.050000e+00 -1.631432e-20
-3.040000e+00 -1.665342e-20
-3.030000e+00 -1.655548e-20
-3.020000e+00 -1.598302e-20
-3.010000e+00 -1.490910e-20
-3.000000e+00 -1.331897e-20
-2.990000e+00 -1.121173e-20
-2.980000e+00 -8.601487e-21
-2.970000e+00 -5.518313e-21
-2.960000e+00 -2.008712e-21
-2.950000e+00 1.864314e-21
-2.940000e+00 6.021743e-21
-2.930000e+00 1.036952e-20
-2.920000e+00 1.480008e-20
-2.910000e+00 1.919445e-20
-2.900000e+00 2.342482e-20
-2.890000e+00 2.735766e-20
-2.880000e+00 3.085725e-20
-2.870000e+00 3.378958e-20
-2.860000e+00 3.602648e-20
-2.850000e+00 3.745001e-20
-2.840000e+00 3.795680e-20
-2.830000e+00 3.746228e-20
-2.820000e+00 3.590480e-20
-2.810000e+00 3.324931e-20
-2.800000e+00 2.949037e-20
-2.790000e+00 2.465477e-20
-2.780000e+00 1.880306e-20
-2.770000e+00 1.203038e-20
-2.760000e+00 4.466091e-21
-2.750000e+00 -3.727563e-21
-2.740000e+00 -1.235801e-20
-2.730000e+00 -2.120602e-20
-2.720000e+00 -3.003054e-20
-2.710000e+00 -3.857464e-20
-2.700000e+00 -4.657223e-20
-2.690000e+00 -5.375588e-20
-2.680000e+00 -5.986505e-20
-2.670000e+00 -6.465489e-20
-2.660000e+00 -6.790509e-20
-2.650000e+00 -6.942873e-20
-2.640000e+00 -6.908068e-20
-2.630000e+00 -6.676520e-20
-2.620000e+00 -6.244271e-20
-2.610000e+00 -5.613498e-20
-2.600000e+00 -4.792899e-20
-2.590000e+00 -3.797850e-20
-2.580000e+00 -2.650405e-20
-2.570000e+00 -1.379025e-20
-2.560000e+00 -1.808966e-22
-2.550000e+00 1.392829e-20
-2.540000e+00 2.809937e-20
-2.530000e+00 4.186408e-20
-2.520000e+00 5.473768e-20
-2.510000e+00 6.623469e-20
-2.500000e+00 7.588574e-20
-2.490000e+00 8.325550e-20
-2.480000e+00 8.796080e-20
-2.470000e+00 8.968854e-20
-2.460000e+00 8.821274e-20
-2.450000e+00 8.340988e-20
-2.440000e+00 7.527211e-20
-2.430000e+00 6.391766e-20
-2.420000e+00 4.959737e-20
-2.410000e+00 3.269743e-20
-2.400000e+00 1.373749e-20
-2.390000e+00 -6.636363e-21
-2.380000e+00 -2.766372e-20
-2.370000e+00 -4.848696e-20
-2.360000e+00 -6.817417e-20
-2.350000e+00 -8.574618e-20
-2.340000e+00 -1.002088e-19
-2.330000e+00 -1.105883e-19
-2.320000e+00 -1.159701e-19
-2.310000e+00 -1.155393e-19
-2.300000e+00 -1.086218e-19
-2.290000e+00 -9.472486e-20
-2.280000e+00 -7.357579e-20
-2.270000e+00 -4.515646e-20
-2.260000e+00 -9.733114e-21
-2.250000e+00 3.212087e-20
-2.240000e+00 7.951018e-20
-2.230000e+00 1.312127e-19
-2.220000e+00 1.856849e-19
-2.210000e+00 2.410799e-19
-2.200000e+00 2.952762e-19
-2.190000e+00 3.459217e-19
-2.180000e+00 3.904874e-19
-2.170000e+00 4.263358e-19
-2.160000e+00 4.507991e-19
-2.150000e+00 4.612680e-19
-2.140000e+00 4.552878e-19
-2.130000e+00 4.306614e-19
-2.120000e+00 3.855548e-19
-2.110000e+00 3.186023e-19
-2.100000e+00 2.290094e-19
-2.090000e+00 1.166478e-19
-2.080000e+00 -1.785998e-20
-2.070000e+00 -1.730700e-19
-2.060000e+00 -3.466660e-19
-2.050000e+00 -5.354282e-19
-2.040000e+00 -7.352291e-19
-2.030000e+00 -9.410569e-19
-2.020000e+00 -1.147069e-18
-2.010000e+00 -1.346675e-18
-2.000000e+00 -1.532658e-18
-1.990000e+00 -1.697322e-18
-1.980000e+00 -1.832673e-18
-1.970000e+00 -1.930631e-18
-1.960000e+00 -1.983268e-18
-1.950000e+00 -1.983058e-18
-1.940000e+00 -1.923163e-18
-1.930000e+00 -1.797703e-18
-1.920000e+00 -1.602051e-18
-1.910000e+00 -1.333108e-18
-1.900000e+00 -9.895673e-19
-1.890000e+00 -5.721577e-19
-1.880000e+00 -8.384926e-20
-1.870000e+00 4.699847e-19
-1.860000e+00 1.081451e-18
-1.850000e+00 1.740091e-18
-1.840000e+00 2.432887e-18
-1.830000e+00 3.144363e-18
-1.820000e+00 3.856751e-18
-1.810000e+00 4.550236e-18
-1.800000e+00 5.203302e-18
-1.790000e+00 5.793148e-18
-1.780000e+00 6.296178e-18
-1.770000e+00 6.688571e-18
-1.760000e+00 6.946927e-18
-1.750000e+00 7.048945e-18
-1.740000e+00 6.974138e-18
-1.730000e+00 6.704603e-18
-1.720000e+00 6.225762e-18
-1.710000e+00 5.527110e-18
-1.700000e+00 4.602907e-18
-1.690000e+00 3.452831e-18
-1.680000e+00 2.082543e-18
-1.670000e+00 5.041380e-19
-1.660000e+00 -1.263518e-18
-1.650000e+00 -3.194606e-18
-1.640000e+00 -5.256327e-18
-1.630000e+00 -7.409077e-18
-1.620000e+00 -9.606788e-18
-1.610000e+00 -1.179751e-17
-1.600000e+00 -1.392415e-17
-1.590000e+00 -1.592548e-17
-1.580000e+00 -1.773728e-17
-1.570000e+00 -1.929371e-17
-1.560000e+00 -2.052886e-17
-1.550000e+00 -2.137841e-17
-1.540000e+00 -2.178143e-17
-1.530000e+00 -2.168226e-17
-1.520000e+00 -2.103241e-17
-1.510000e+00 -1.979254e-17
-1.500000e+00 -1.793421e-17
-1.490000e+00 -1.544175e-17
-1.480000e+00 -1.231378e-17
-1.470000e+00 -8.564641e-18
-1.460000e+00 -4.225489e-18
-1.450000e+00 6.548665e-19
-1.440000e+00 6.009561e-18
-1.430000e+00 1.175361e-17
-1.420000e+00 1.778435e-17
-1.410000e+00 2.398232e-17
-1.400000e+00 3.021258e-17
-1.390000e+00 3.632671e-17
-1.380000e+00 4.216504e-17
-1.370000e+00 4.755971e-17
-1.360000e+00 5.233779e-17
-1.350000e+00 5.632515e-17
-1.340000e+00 5.935051e-17
-1.330000e+00 6.124990e-17
-1.320000e+00 6.187121e-17
-1.310000e+00 6.107892e-17
-1.300000e+00 5.875893e-17
-1.290000e+00 5.482304e-17
-1.280000e+00 4.921370e-17
-1.270000e+00 4.190783e-17
-1.260000e+00 3.292062e-17
-1.250000e+00 2.230853e-17
-1.240000e+00 1.017169e-17
-1.230000e+00 -3.344645e-18
-1.220000e+00 -1.804946e-17
-1.210000e+00 -3.370643e-17
-1.200000e+00 -5.003550e-17
-1.190000e+00 -6.671557e-17
-1.180000e+00 -8.338838e-17
-1.170000e+00 -9.966365e-17
-1.160000e+00 -1.151254e-16
-1.150000e+00 -1.293394e-16
-1.140000e+00 -1.418618e-16
-1.130000e+00 -1.522481e-16
-1.120000e+00 -1.600643e-16
-1.110000e+00 -1.648973e-16
-1.100000e+00 -1.663665e-16
-1.090000e+00 -1.641351e-16
-1.080000e+00 -1.579224e-16
-1.070000e+00 -1.475148e-16
-1.060000e+00 -1.327763e-16
-1.050000e+00 -1.136592e-16
-1.040000e+00 -9.021187e-17
-1.030000e+00 -6.258685e-17
-1.020000e+00 -3.104593e-17
-1.010000e+00 4.036282e-18
-1.000000e+00 4.217106e-17
-9.900002e-01 8.275699e-17
-9.800000e-01 1.250839e-16
-9.700003e-01 1.683400e-16
-9.600000e-01 2.116210e-16
-9.500003e-01 2.539434e-16
-9.400001e-01 2.942597e-16
-9.300003e-01 3.314773e-16
-9.200001e-01 3.644788e-16
-9.100003e-01 3.921459e-16
-9.000001e-01 4.133845e-16
-8.900003e-01 4.271516e-16
-8.800001e-01 4.324835e-16
-8.700004e-01 4.285249e-16
-8.600001e-01 4.145568e-16
-8.500004e-01 3.900251e-16
-8.400002e-01 3.545671e-16
-8.299999e-01 3.080363e-16
-8.200002e-01 2.505236e-16
-8.099999e-01 1.823761e-16
-8.000002e-01 1.042111e-16
-7.900000e-01 1.692448e-17
-7.800002e-01 -7.830535e-17
-7.700000e-01 -1.800200e-16
-7.600002e-01 -2.864905e-16
-7.500000e-01 -3.957338e-16
-7.400002e-01 -5.055354e-16
-7.300000e-01 -6.134800e-16
-7.200003e-01 -7.169895e-16
-7.100000e-01 -8.133668e-16
-7.000003e-01 -8.998480e-16
-6.900001e-01 -9.736556e-16
-6.800003e-01 -1.032065e-15
-6.700001e-01 -1.072468e-15
-6.600003e-01 -1.092440e-15
-6.500001e-01 -1.089810e-15
-6.400003e-01 -1.062735e-15
-6.300001e-01 -1.009764e-15
-6.200004e-01 -9.299041e-16
-6.100001e-01 -8.226840e-16
-6.000004e-01 -6.882045e-16
-5.900002e-01 -5.271847e-16
-5.800004e-01 -3.409970e-16
-5.700002e-01 -1.316907e-16
-5.599999e-01 9.799979e-17
-5.500002e-01 3.446586e-16
-5.400000e-01 6.042108e-16
-5.300002e-01 8.719586e-16
-5.200000e-01 1.142636e-15
-5.100002e-01 1.410485e-15
-5.000000e-01 1.669335e-15
-4.900002e-01 1.912720e-15
-4.800000e-01 2.133990e-15
-4.700003e-01 2.326451e-15
-4.600000e-01 2.483508e-15
-4.500003e-01 2.598821e-15
-4.400001e-01 2.666471e-15
-4.300003e-01 2.681124e-15
-4.200001e-01 2.638192e-15
-4.100003e-01 2.534003e-15
-4.000001e-01 2.365950e-15
-3.900003e-01 2.132636e-15
-3.800001e-01 1.833998e-15
-3.700004e-01 1.471418e-15
-3.600001e-01 1.047799e-15
-3.500004e-01 5.676216e-16
-3.400002e-01 3.697007e-17
-3.300004e-01 -5.364858e-16
-3.200002e-01 -1.143531e-15
-3.099999e-01 -1.773499e-15
-3.000002e-01 -2.414389e-15
-2.900000e-01 -3.053043e-15
-2.800002e-01 -3.675335e-15
-2.700000e-01 -4.266419e-15
-2.600002e-01 -4.811006e-15
-2.500000e-01 -5.293663e-15
-2.400002e-01 -5.699155e-15
-2.300000e-01 -6.012782e-15
-2.200003e-01 -6.220751e-15
-2.100000e-01 -6.310556e-15
-2.000003e-01 -6.271341e-15
-1.900001e-01 -6.094260e-15
-1.800003e-01 -5.772827e-15
-1.700001e-01 -5.303225e-15
-1.600003e-01 -4.684593e-15
-1.500001e-01 -3.919248e-15
-1.400003e-01 -3.012875e-15
-1.300001e-01 -1.974640e-15
-1.200004e-01 -8.172389e-16
-1.100001e-01 4.431305e-16
-1.000004e-01 1.786871e-15
-9.000015e-02 3.191177e-15
-8.000040e-02 4.630303e-15
-7.000017e-02 6.075925e-15
-5.999994e-02 7.497579e-15
-5.000019e-02 8.863166e-15
-3.999996e-02 1.013955e-14
-3.000021e-02 1.129320e-14
-1.999998e-02 1.229090e-14
-1.000023e-02 1.310049e-14
0.000000e+00 1.369161e-14
1.000023e-02 1.403653e-14
1.999950e-02 1.411089e-14
2.999973e-02 1.389445e-14
3.999996e-02 1.337181e-14
5.000019e-02 1.253309e-14
5.999947e-02 1.137446e-14
6.999969e-02 9.898640e-15
7.999992e-02 8.115289e-15
9.000015e-02 6.041213e-15
9.999943e-02 3.700487e-15
1.099997e-01 1.124393e-15
1.199999e-01 -1.648768e-15
1.300001e-01 -4.574072e-15
1.399994e-01 -7.600495e-15
1.499996e-01 -1.067162e-14
1.599998e-01 -1.372650e-14
1.700001e-01 -1.670069e-14
1.799994e-01 -1.952736e-14
1.899996e-01 -2.213860e-14
1.999998e-01 -2.446676e-14
2.100000e-01 -2.644590e-14
2.200003e-01 -2.801331e-14
2.299995e-01 -2.911098e-14
2.399998e-01 -2.968712e-14
2.500000e-01 -2.969763e-14
2.600002e-01 -2.910744e-14
2.699995e-01 -2.789177e-14
2.799997e-01 -2.603727e-14
2.900000e-01 -2.354294e-14
3.000002e-01 -2.042084e-14
3.099995e-01 -1.669662e-14
3.199997e-01 -1.240970e-14
3.299999e-01 -7.613285e-15
3.400002e-01 -2.373972e-15
3.499994e-01 3.228851e-15
3.599997e-01 9.103927e-15
3.699999e-01 1.514939e-14
3.800001e-01 2.125425e-14
3.899994e-01 2.730020e-14
3.999996e-01 3.316361e-14
4.099998e-01 3.871776e-14
4.200001e-01 4.383531e-14
4.299994e-01 4.839075e-14
4.399996e-01 5.226312e-14
4.499998e-01 5.533861e-14
4.600000e-01 5.751324e-14
4.700003e-01 5.869546e-14
4.799995e-01 5.880857e-14
4.899998e-01 5.779292e-14
5.000000e-01 5.560808e-14
5.100002e-01 5.223441e-14
5.199995e-01 4.767453e-14
5.299997e-01 4.195429e-14
5.400000e-01 3.512341e-14
5.500002e-01 2.725551e-14
5.599995e-01 1.844786e-14
5.699997e-01 8.820463e-15
5.799999e-01 -1.485106e-15
5.900002e-01 -1.230764e-14
5.999994e-01 -2.346850e-14
6.099997e-01 -3.477420e-14
6.199999e-01 -4.601967e-14
6.300001e-01 -5.699147e-14
6.399994e-01 -6.747170e-14
6.499996e-01 -7.724177e-14
6.599998e-01 -8.608674e-14
6.700001e-01 -9.379921e-14
6.799994e-01 -1.001839e-13
6.899996e-01 -1.050613e-13
6.999998e-01 -1.082721e-13
7.100000e-01 -1.096809e-13
7.200003e-01 -1.091791e-13
7.299995e-01 -1.066885e-13
7.399998e-01 -1.021636e-13
7.500000e-01 -9.559369e-14
7.600002e-01 -8.700441e-14
7.699995e-01 -7.645837e-14
7.799997e-01 -6.405554e-14
7.900000e-01 -4.993269e-14
8.000002e-01 -3.426237e-14
8.099995e-01 -1.725084e-14
8.199997e-01 8.641291e-16
8.299999e-01 1.981653e-14
8.400002e-01 3.931574e-14
8.499994e-01 5.905063e-14
8.599997e-01 7.869440e-14
8.699999e-01 9.790951e-14
8.800001e-01 1.163530e-13
8.899994e-01 1.336821e-13
8.999996e-01 1.495600e-13
9.099998e-01 1.636615e-13
9.200001e-01 1.756786e-13
9.299994e-01 1.853262e-13
9.399996e-01 1.923472e-13
9.499998e-01 1.965175e-13
9.600000e-01 1.976506e-13
9.700003e-01 1.956009e-13
9.799995e-01 1.902686e-13
9.899998e-01 1.816010e-13
1.000000e+00 1.695957e-13
1.010000e+00 1.543016e-13
1.020000e+00 1.358200e-13
1.030000e+00 1.143042e-13
1.040000e+00 8.995911e-14
1.050000e+00 6.303999e-14
1.059999e+00 3.384991e-14
1.070000e+00 2.737113e-15
1.080000e+00 -2.990834e-14
1.090000e+00 -6.365890e-14
1.099999e+00 -9.805380e-14
1.110000e+00 -1.326047e-13
1.120000e+00 -1.668008e-13
1.130000e+00 -2.001153e-13
1.139999e+00 -2.320116e-13
1.150000e+00 -2.619498e-13
1.160000e+00 -2.893939e-13
1.170000e+00 -3.138186e-13
1.179999e+00 -3.347171e-13
1.190000e+00 -3.516074e-13
1.200000e+00 -3.640403e-13
1.210000e+00 -3.716063e-13
1.220000e+00 -3.739429e-13
1.230000e+00 -3.707414e-13
1.240000e+00 -3.617533e-13
1.250000e+00 -3.467974e-13
1.260000e+00 -3.257648e-13
1.270000e+00 -2.986249e-13
1.280000e+00 -2.654310e-13
1.290000e+00 -2.263228e-13
1.300000e+00 -1.815320e-13
1.309999e+00 -1.313838e-13
1.320000e+00 -7.629875e-14
1.330000e+00 -1.679377e-14
1.340000e+00 4.651838e-14
1.349999e+00 1.129310e-13
1.360000e+00 1.816465e-13
1.370000e+00 2.517815e-13
1.380000e+00 3.223721e-13
1.389999e+00 3.923832e-13
1.400000e+00 4.607168e-13
1.410000e+00 5.262246e-13
1.420000e+00 5.877205e-13
1.429999e+00 6.439952e-13
1.440000e+00 6.938345e-13
1.450000e+00 7.360353e-13
1.460000e+00 7.694278e-13
1.469999e+00 7.928934e-13
1.480000e+00 8.053893e-13
1.490000e+00 8.059700e-13
1.500000e+00 7.938108e-13
1.510000e+00 7.682302e-13
1.520000e+00 7.287136e-13
1.530000e+00 6.749341e-13
1.540000e+00 6.067734e-13
1.550000e+00 5.243409e-13
1.559999e+00 4.279893e-13
1.570000e+00 3.183279e-13
1.580000e+00 1.962321e-13
1.590000e+00 6.285054e-14
1.599999e+00 -8.039526e-14
1.610000e+00 -2.318134e-13
1.620000e+00 -3.894501e-13
1.630000e+00 -5.511050e-13
1.639999e+00 -7.143506e-13
1.650000e+00 -8.765567e-13
1.660000e+00 -1.034927e-12
1.670000e+00 -1.186527e-12
1.679999e+00 -1.328339e-12
1.690000e+00 -1.457299e-12
1.700000e+00 -1.570355e-12
1.710000e+00 -1.664522e-12
1.719999e+00 -1.736940e-12
1.730000e+00 -1.784935e-12
1.740000e+00 -1.806082e-12
1.750000e+00 -1.798268e-12
1.760000e+00 -1.759747e-12
1.770000e+00 -1.689204e-12
1.780000e+00 -1.585806e-12
1.790000e+00 -1.449250e-12
1.800000e+00 -1.279801e-12
1.809999e+00 -1.078333e-12
1.820000e+00 -8.463414e-13
1.830000e+00 -5.859680e-13
1.840000e+00 -2.999940e-13
1.849999e+00 8.167959e-15
1.860000e+00 3.344963e-13
1.870000e+00 6.744003e-13
1.880000e+00 1.022767e-12
1.889999e+00 1.374027e-12
1.900000e+00 1.722234e-12
1.910000e+00 2.061144e-12
1.920000e+00 2.384326e-12
1.929999e+00 2.685263e-12
1.940000e+00 2.957475e-12
1.950000e+00 3.194639e-12
1.960000e+00 3.390715e-12
1.969999e+00 3.540084e-12
1.980000e+00 3.637663e-12
1.990000e+00 3.679045e-12
2.000000e+00 3.660601e-12
2.010000e+00 3.579603e-12
2.020000e+00 3.434319e-12
2.030000e+00 3.224091e-12
2.040000e+00 2.949403e-12
2.050000e+00 2.611936e-12
2.059999e+00 2.214583e-12
2.070000e+00 1.761460e-12
2.080000e+00 1.257886e-12
2.090000e+00 7.103302e-13
2.099999e+00 1.263518e-13
2.110000e+00 -4.855022e-13
2.120000e+00 -1.115813e-12
2.130000e+00 -1.754432e-12
2.139999e+00 -2.390646e-12
2.150000e+00 -3.013352e-12
2.160000e+00 -3.611264e-12
2.170000e+00 -4.173111e-12
2.179999e+00 -4.687863e-12
2.190000e+00 -5.144944e-12
2.200000e+00 -5.534460e-12
2.210000e+00 -5.847415e-12
2.219999e+00 -6.075912e-12
2.230000e+00 -6.213345e-12
2.240000e+00 -6.254578e-12
2.250000e+00 -6.196088e-12
2.260000e+00 -6.036090e-12
2.270000e+00 -5.774623e-12
2.280000e+00 -5.413608e-12
2.290000e+00 -4.956866e-12
2.300000e+00 -4.410095e-12
2.309999e+00 -3.780805e-12
2.320000e+00 -3.078225e-12
2.330000e+00 -2.313159e-12
2.340000e+00 -1.497801e-12
2.349999e+00 -6.455281e-13
2.360000e+00 2.293513e-13
2.370000e+00 1.111870e-12
2.380000e+00 1.986698e-12
2.389999e+00 2.838461e-12
2.400000e+00 3.652059e-12
2.410000e+00 4.412998e-12
2.420000e+00 5.107712e-12
2.429999e+00 5.723883e-12
2.440000e+00 6.250718e-12
2.450000e+00 6.679236e-12
2.460000e+00 7.002490e-12
2.469999e+00 7.215764e-12
2.480000e+00 7.316717e-12
2.490000e+00 7.305491e-12
2.500000e+00 7.184725e-12
2.510000e+00 6.959567e-12
2.520000e+00 6.637574e-12
2.530000e+00 6.228584e-12
2.540000e+00 5.744493e-12
2.550000e+00 5.199029e-12
2.559999e+00 4.607406e-12
2.570000e+00 3.985980e-12
2.580000e+00 3.351840e-12
2.590000e+00 2.722363e-12
2.599999e+00 2.114754e-12
2.610000e+00 1.545566e-12
2.620000e+00 1.030212e-12
2.630000e+00 5.824898e-13
2.639999e+00 2.141203e-13
2.650000e+00 -6.567412e-14
2.660000e+00 -2.505571e-13
2.670000e+00 -3.374056e-13
2.679999e+00 -3.265743e-13
2.690000e+00 -2.220816e-13
2.700000e+00 -3.171399e-14
2.710000e+00 2.329593e-13
2.719999e+00 5.566715e-13
2.730000e+00 9.206425e-13
2.740000e+00 1.302862e-12
2.750000e+00 1.678474e-12
2.760000e+00 2.020255e-12
2.770000e+00 2.299192e-12
2.780000e+00 2.485131e-12
2.790000e+00 2.547511e-12
2.800000e+00 2.456147e-12
2.809999e+00 2.182065e-12
2.820000e+00 1.698366e-12
2.830000e+00 9.811103e-13
2.840000e+00 1.017392e-14
2.849999e+00 -1.229900e-12
2.860000e+00 -2.749101e-12
2.870000e+00 -4.551228e-12
2.880000e+00 -6.633234e-12
2.889999e+00 -8.984692e-12
2.900000e+00 -1.158738e-11
2.910000e+00 -1.441497e-11
2.920000e+00 -1.743295e-11
2.929999e+00 -2.059862e-11
2.940000e+00 -2.386129e-11
2.950000e+00 -2.716271e-11
2.960000e+00 -3.043760e-11
2.969999e+00 -3.361433e-11
2.980000e+00 -3.661601e-11
2.990000e+00 -3.936134e-11
3.000000e+00 -4.176605e-11