-8.000000e+00 0.000000e+00
-7.950000e+00 0.000000e+00
-7.900000e+00 0.000000e+00
-7.850000e+00 0.000000e+00
-7.800000e+00 0.000000e+00
-7.750000e+00 0.000000e+00
-7.700000e+00 0.000000e+00
-7.650000e+00 0.000000e+00
-7.600000e+00 0.000000e+00
-7.550000e+00 0.000000e+00
-7.500000e+00 0.000000e+00
-7.450000e+00 0.000000e+00
-7.400000e+00 0.000000e+00
-7.350000e+00 0.000000e+00
-7.300000e+00 0.000000e+00
-7.250000e+00 0.000000e+00
-7.200000e+00 0.000000e+00
-7.150000e+00 0.000000e+00
-7.100000e+00 0.000000e+00
-7.050000e+00 0.000000e+00
-7.000000e+00 0.000000e+00
-6.950000e+00 0.000000e+00
-6.900000e+00 0.000000e+00
-6.850000e+00 0.000000e+00
-6.800000e+00 0.000000e+00
-6.750000e+00 0.000000e+00
-6.700000e+00 0.000000e+00
-6.650000e+00 0.000000e+00
-6.600000e+00 0.000000e+00
-6.550000e+00 0.000000e+00
-6.500000e+00 0.000000e+00
-6.450000e+00 0.000000e+00
-6.400000e+00 0.000000e+00
-6.350000e+00 0.000000e+00
-6.300000e+00 0.000000e+00
-6.250000e+00 0.000000e+00
-6.200000e+00 0.000000e+00
-6.150000e+00 0.000000e+00
-6.100000e+00 0.000000e+00
-6.050000e+00 0.000000e+00
-6.000000e+00 0.000000e+00
-5.950000e+00 -1.401298e-45
-5.900000e+00 -1.541428e-44
-5.850000e+00 -9.809089e-45
-5.800000e+00 5.605194e-44
-5.750000e+00 2.017870e-43
-5.700000e+00 5.857428e-43
-5.650000e+00 8.814167e-43
-5.600000e+00 4.259947e-43
-5.550000e+00 -2.005258e-42
-5.500000e+00 -6.167115e-42
-5.450000e+00 -7.851475e-42
-5.400000e+00 1.681558e-42
-5.350000e+00 2.724404e-41
-5.300000e+00 5.264118e-41
-5.250000e+00 3.151240e-41
-5.200000e+00 -8.325394e-41
-5.150000e+00 -2.545515e-40
-5.100000e+00 -2.813947e-40
-5.050000e+00 1.222843e-40
-5.000000e+00 9.691478e-40
-4.950000e+00 1.544577e-39
-4.900000e+00 4.905343e-40
-4.850000e+00 -2.910871e-39
-4.800000e+00 -6.651075e-39
-4.750000e+00 -5.368482e-39
-4.700000e+00 5.874362e-39
-4.650000e+00 2.354805e-38
-4.600000e+00 3.008070e-38
-4.550000e+00 1.723746e-39
-4.500000e+00 -6.580210e-38
-4.450000e+00 -1.286120e-37
-4.400000e+00 -9.597117e-38
-4.350000e+00 1.093131e-37
-4.300000e+00 4.393753e-37
-4.250000e+00 6.250642e-37
-4.200000e+00 2.175226e-37
-4.150000e+00 -1.089982e-36
-4.100000e+00 -2.822509e-36
-4.050000e+00 -3.119826e-36
-4.000000e+00 8.021609e-37
-3.950000e+00 9.832749e-36
-3.900000e+00 1.817023e-35
-3.850000e+00 1.131393e-35
-3.800000e+00 -2.452616e-35
-3.750000e+00 -7.810236e-35
-3.700000e+00 -9.099983e-35
-3.650000e+00 2.052579e-35
-3.600000e+00 2.670961e-34
-3.550000e+00 4.585751e-34
-3.500000e+00 2.149653e-34
-3.450000e+00 -7.013339e-34
-3.400000e+00 -1.813985e-33
-3.350000e+00 -1.700250e-33
-3.300000e+00 1.087830e-33
-3.250000e+00 5.871245e-33
-3.200000e+00 8.171689e-33
-3.150000e+00 1.609528e-33
-3.100000e+00 -1.514470e-32
-3.050000e+00 -3.055138e-32
-3.000000e+00 -2.170452e-32
-2.950000e+00 2.662387e-32
-2.900000e+00 9.283454e-32
-2.850000e+00 1.083426e-31
-2.800000e+00 -5.517813e-34
-2.750000e+00 -2.221044e-31
-2.700000e+00 -3.897758e-31
-2.650000e+00 -2.418416e-31
-2.600000e+00 3.464808e-31
-2.550000e+00 1.087477e-30
-2.500000e+00 1.250933e-30
-2.450000e+00 1.179320e-31
-2.400000e+00 -2.201027e-30
-2.350000e+00 -4.188147e-30
-2.300000e+00 -3.371785e-30
-2.250000e+00 1.875869e-30
-2.200000e+00 9.959115e-30
-2.150000e+00 1.492704e-29
-2.100000e+00 8.634531e-30
-2.050000e+00 -1.304710e-29
-2.000000e+00 -4.216049e-29
-1.950000e+00 -5.482462e-29
-1.900000e+00 -2.015086e-29
-1.850000e+00 7.328599e-29
-1.800000e+00 1.829507e-28
-1.750000e+00 2.010631e-28
-1.700000e+00 8.031775e-30
-1.650000e+00 -3.986313e-28
-1.600000e+00 -7.722872e-28
-1.550000e+00 -6.425821e-28
-1.500000e+00 3.598160e-28
-1.450000e+00 1.959104e-27
-1.400000e+00 2.907941e-27
-1.350000e+00 1.491576e-27
-1.300000e+00 -2.933691e-27
-1.250000e+00 -8.210775e-27
-1.200000e+00 -9.296526e-27
-1.150000e+00 -1.351224e-27
-1.100000e+00 1.480981e-26
-1.050000e+00 2.902090e-26
-1.000000e+00 2.517347e-26
-9.499998e-01 -6.689976e-27
-9.000001e-01 -5.608445e-26
-8.499999e-01 -8.854097e-26
-7.999997e-01 -6.275909e-26
-7.500000e-01 3.622882e-26
-6.999998e-01 1.697901e-25
-6.500001e-01 2.500843e-25
-5.999999e-01 1.837865e-25
-5.499997e-01 -6.592271e-26
-5.000000e-01 -4.341495e-25
-4.499998e-01 -7.467214e-25
-4.000001e-01 -7.493989e-25
-3.499999e-01 -1.819189e-25
-2.999997e-01 1.057244e-24
-2.500000e-01 2.624403e-24
-1.999998e-01 3.459612e-24
-1.500001e-01 1.942049e-24
-9.999990e-02 -3.052631e-24
-4.999971e-02 -1.028007e-23
0.000000e+00 -1.473065e-23
5.000019e-02 -8.969483e-24
1.000004e-01 1.132102e-23
1.500006e-01 3.956011e-23
1.999998e-01 5.474920e-23
2.500000e-01 3.007240e-23
3.000002e-01 -4.474961e-23
3.500004e-01 -1.390749e-22
4.000006e-01 -1.784071e-22
4.499998e-01 -8.275104e-23
5.000000e-01 1.607187e-22
5.500002e-01 4.367730e-22
6.000004e-01 5.196212e-22
6.500006e-01 2.046056e-22
6.999998e-01 -4.946775e-22
7.500000e-01 -1.222772e-21
8.000002e-01 -1.385469e-21
8.500004e-01 -5.161749e-22
9.000006e-01 1.268083e-21
9.499998e-01 3.057419e-21
1.000000e+00 3.474399e-21
1.050000e+00 1.512204e-21
1.100000e+00 -2.550393e-21
1.150001e+00 -6.811107e-21
1.200000e+00 -8.422643e-21
1.250000e+00 -5.131025e-21
1.300000e+00 3.093616e-21
1.350000e+00 1.328719e-20
1.400001e+00 2.014807e-20
1.450000e+00 1.801482e-20
1.500000e+00 3.584943e-21
1.550000e+00 -2.132201e-20
1.600000e+00 -4.778974e-20
1.650001e+00 -6.006637e-20
1.700000e+00 -4.024831e-20
1.750000e+00 2.112345e-20
1.800000e+00 1.108820e-19
1.850000e+00 1.841796e-19
1.900001e+00 1.737047e-19
1.950000e+00 2.581291e-20
2.000000e+00 -2.450779e-19
2.050000e+00 -5.165257e-19
2.100000e+00 -5.783815e-19
2.150001e+00 -2.408027e-19
2.200000e+00 4.988452e-19
2.250000e+00 1.329211e-18
2.300000e+00 1.669475e-18
2.350000e+00 9.583823e-19
2.400001e+00 -8.940188e-19
2.450000e+00 -3.155236e-18
2.500000e+00 -4.357360e-18
2.550000e+00 -3.005234e-18
2.600000e+00 1.298102e-18
2.650001e+00 6.951083e-18
2.700000e+00 1.049240e-17
2.750000e+00 8.222716e-18
2.800000e+00 -1.152659e-18
2.850000e+00 -1.433860e-17
2.900001e+00 -2.360217e-17
2.950000e+00 -2.031288e-17
3.000000e+00 -8.852347e-19
3.050000e+00 2.815469e-17
3.100000e+00 5.018909e-17
3.150001e+00 4.603320e-17
3.200000e+00 6.905236e-18
3.250000e+00 -5.428662e-17
3.300000e+00 -1.025789e-16
3.350000e+00 -9.688641e-17
3.400001e+00 -1.785274e-17
3.450000e+00 1.078286e-16
3.500000e+00 2.066526e-16
3.550000e+00 1.926354e-16
3.600000e+00 2.694880e-17
3.650001e+00 -2.309165e-16
3.700000e+00 -4.236909e-16
3.750000e+00 -3.724826e-16
3.800000e+00 -5.404264e-18
3.850000e+00 5.361858e-16
3.900001e+00 9.071259e-16
3.950000e+00 7.315718e-16
4.000000e+00 -1.167785e-16
4.050000e+00 -1.294804e-15
4.100000e+00 -2.031342e-15
4.150001e+00 -1.523362e-15
4.200000e+00 4.515232e-16
4.250000e+00 3.079382e-15
4.300000e+00 4.639826e-15
4.350000e+00 3.398433e-15
4.400001e+00 -1.067796e-15
4.450000e+00 -6.927898e-15
4.500000e+00 -1.043363e-14
4.550000e+00 -7.860550e-15
4.600000e+00 1.695914e-15
4.650001e+00 1.439448e-14
4.700000e+00 2.240794e-14
4.750000e+00 1.794463e-14
4.800000e+00 -1.080573e-15
4.850000e+00 -2.721533e-14
4.900001e+00 -4.500430e-14
4.950000e+00 -3.885988e-14
5.000000e+00 -3.997919e-15
5.050000e+00 4.626234e-14
5.100000e+00 8.333185e-14
5.150001e+00 7.783874e-14
5.200000e+00 1.950407e-14
5.250000e+00 -6.974465e-14
5.300000e+00 -1.406890e-13
5.350000e+00 -1.418532e-13
5.400001e+00 -5.330105e-14
5.450000e+00 9.153861e-14
5.500000e+00 2.141947e-13
5.550000e+00 2.317903e-13
5.600000e+00 1.104022e-13
5.650001e+00 -1.020225e-13
5.700000e+00 -2.900874e-13
5.750000e+00 -3.330804e-13
5.800000e+00 -1.824611e-13
5.850000e+00 9.483103e-14
5.900001e+00 3.427866e-13
5.950000e+00 4.062629e-13
6.000000e+00 2.329375e-13
6.050000e+00 -8.127753e-14
6.100000e+00 -3.429815e-13
6.150001e+00 -3.853122e-13
6.200000e+00 -1.859749e-13
6.250000e+00 1.074761e-13
6.300000e+00 2.758888e-13
6.350000e+00 1.923159e-13
6.400001e+00 -6.653075e-14
6.450000e+00 -2.583370e-13
6.500000e+00 -1.587622e-13
6.550000e+00 2.319543e-13
6.600000e+00 6.273148e-13
6.650001e+00 6.256299e-13
6.700000e+00 3.117207e-14
6.750000e+00 -9.025635e-13
6.800000e+00 -1.532582e-12
6.850000e+00 -1.228268e-12
6.900001e+00 1.119057e-13
6.950000e+00 1.811300e-12
7.000000e+00 2.708005e-12
7.050000e+00 1.910569e-12
7.100000e+00 -4.462585e-13
7.150001e+00 -3.030115e-12
7.200000e+00 -4.007308e-12
7.250000e+00 -2.295091e-12
7.300000e+00 1.444260e-12
7.350000e+00 4.883827e-12
7.400001e+00 5.383953e-12
7.450000e+00 1.898143e-12
7.500000e+00 -3.869138e-12
7.550000e+00 -8.092829e-12
7.600000e+00 -7.184363e-12
7.650001e+00 -5.142169e-13
7.700000e+00 8.431406e-12
7.750000e+00 1.365240e-11
7.800000e+00 1.041500e-11
7.850000e+00 -1.077996e-12
7.900001e+00 -1.479071e-11
7.950000e+00 -2.190554e-11
8.000000e+00 -1.638078e-11
8.050001e+00 4.691951e-13
8.100000e+00 1.973955e-11
8.150000e+00 2.986025e-11
8.200001e+00 2.395556e-11
8.250000e+00 4.799748e-12
8.300001e+00 -1.639696e-11
8.350000e+00 -2.718242e-11
8.400000e+00 -2.247619e-11
8.450001e+00 -8.414933e-12
8.500000e+00 2.021120e-12
8.550001e+00 -6.830049e-13
8.600000e+00 -1.353081e-11
8.650000e+00 -2.069982e-11
8.700001e+00 -4.069071e-12
8.750000e+00 4.124325e-11
8.800001e+00 9.721538e-11
8.850000e+00 1.279229e-10
8.900000e+00 9.906738e-11
8.950001e+00 1.473295e-12
9.000000e+00 -1.366544e-10
9.050001e+00 -2.586142e-10
9.100000e+00 -3.062482e-10
9.150000e+00 -2.497955e-10
9.200001e+00 -1.021636e-10
9.250000e+00 9.137292e-11
9.300001e+00 2.805869e-10
9.350000e+00 4.350159e-10
9.400000e+00 5.473776e-10
9.450001e+00 6.124968e-10
9.500000e+00 5.984654e-10
9.550001e+00 4.368303e-10
9.600000e+00 4.975562e-11
9.650000e+00 -5.921810e-10
9.700001e+00 -1.412500e-09
9.750000e+00 -2.210142e-09
9.800001e+00 -2.701010e-09
9.850000e+00 -2.608121e-09
9.900000e+00 -1.760153e-09
9.950001e+00 -1.531250e-10
1.000000e+01 2.047497e-09
1.005000e+01 4.551290e-09
1.010000e+01 6.996424e-09
1.015000e+01 8.978667e-09
1.020000e+01 1.005165e-08
1.025000e+01 9.727545e-09
1.030000e+01 7.517409e-09
1.035000e+01 3.026555e-09
1.040000e+01 -3.925013e-09
1.045000e+01 -1.322132e-08
1.050000e+01 -2.446846e-08
1.055000e+01 -3.712551e-08
1.060000e+01 -5.069964e-08
1.065000e+01 -6.491798e-08
1.070000e+01 -7.980277e-08
1.075000e+01 -9.563505e-08
1.080000e+01 -1.128593e-07
1.085000e+01 -1.320111e-07
1.090000e+01 -1.537212e-07
1.095000e+01 -1.787809e-07
1.100000e+01 -2.081932e-07
1.105000e+01 -2.431336e-07
1.110000e+01 -2.847967e-07
1.115000e+01 -3.341952e-07
1.120000e+01 -3.920298e-07
1.125000e+01 -4.587299e-07
1.130000e+01 -5.346802e-07
1.135000e+01 -6.205441e-07
1.140000e+01 -7.175379e-07
1.145000e+01 -8.275467e-07
1.150000e+01 -9.530520e-07
1.155000e+01 -1.096946e-06
1.160000e+01 -1.262336e-06
1.165000e+01 -1.452429e-06
1.170000e+01 -1.670494e-06
1.175000e+01 -1.919879e-06
1.180000e+01 -2.204040e-06
1.185000e+01 -2.526597e-06
1.190000e+01 -2.891473e-06
1.195000e+01 -3.303142e-06
1.200000e+01 -3.766944e-06
1.205000e+01 -4.289340e-06
1.210000e+01 -4.877939e-06
1.215000e+01 -5.541291e-06
1.220000e+01 -6.288494e-06
1.225000e+01 -7.128870e-06
1.230000e+01 -8.071926e-06
1.235000e+01 -9.127694e-06
1.240000e+01 -1.030726e-05
1.245000e+01 -1.162329e-05
1.250000e+01 -1.309018e-05
1.255000e+01 -1.472387e-05
1.260000e+01 -1.654135e-05
1.265000e+01 -1.856031e-05
1.270000e+01 -2.079903e-05
1.275000e+01 -2.327680e-05
1.280000e+01 -2.601452e-05
1.285000e+01 -2.903515e-05
1.290000e+01 -3.236389e-05
1.295000e+01 -3.602787e-05
1.300000e+01 -4.005572e-05
1.305000e+01 -4.447719e-05
1.310000e+01 -4.932296e-05
1.315000e+01 -5.462487e-05
1.320000e+01 -6.041621e-05
1.325000e+01 -6.673182e-05
1.330000e+01 -7.360807e-05
1.335000e+01 -8.108279e-05
1.340000e+01 -8.919515e-05
1.345000e+01 -9.798568e-05
1.350000e+01 -1.074965e-04
1.355000e+01 -1.177714e-04
1.360000e+01 -1.288552e-04
1.365000e+01 -1.407930e-04
1.370000e+01 -1.536294e-04
1.375000e+01 -1.674069e-04
1.380000e+01 -1.821668e-04
1.385000e+01 -1.979483e-04
1.390000e+01 -2.147904e-04
1.395000e+01 -2.327317e-04
1.400000e+01 -2.518113e-04
1.405000e+01 -2.720672e-04
1.410000e+01 -2.935354e-04
1.415000e+01 -3.162471e-04
1.420000e+01 -3.402284e-04
1.425000e+01 -3.654976e-04
1.430000e+01 -3.920666e-04
1.435000e+01 -4.199407e-04
1.440000e+01 -4.491197e-04
1.445000e+01 -4.795979e-04
1.450000e+01 -5.113640e-04
1.455000e+01 -5.444005e-04
1.460000e+01 -5.786804e-04
1.465000e+01 -6.141661e-04
1.470000e+01 -6.508086e-04
1.475000e+01 -6.885455e-04
1.480000e+01 -7.273016e-04
1.485000e+01 -7.669902e-04
1.490000e+01 -8.075119e-04
1.495000e+01 -8.487573e-04
1.500000e+01 -8.906041e-04
1.505000e+01 -9.329185e-04
1.510000e+01 -9.755516e-04
1.515000e+01 -1.018342e-03
1.520000e+01 -1.061112e-03
1.525000e+01 -1.103670e-03
1.530000e+01 -1.145810e-03
1.535000e+01 -1.187318e-03
1.540000e+01 -1.227963e-03
1.545000e+01 -1.267507e-03
1.550000e+01 -1.305700e-03
1.555000e+01 -1.342283e-03
1.560000e+01 -1.376987e-03
1.565000e+01 -1.409535e-03
1.570000e+01 -1.439644e-03
1.575000e+01 -1.467027e-03
1.580000e+01 -1.491393e-03
1.585000e+01 -1.512453e-03
1.590000e+01 -1.529915e-03
1.595000e+01 -1.543493e-03
1.600000e+01 -1.552905e-03
1.605000e+01 -1.557876e-03
1.610000e+01 -1.558140e-03
1.615000e+01 -1.553443e-03
1.620000e+01 -1.543545e-03
1.625000e+01 -1.528223e-03
1.630000e+01 -1.507273e-03
1.635000e+01 -1.480512e-03
1.640000e+01 -1.447779e-03
1.645000e+01 -1.408940e-03
1.650000e+01 -1.363889e-03
1.655000e+01 -1.312551e-03
1.660000e+01 -1.254881e-03
1.665000e+01 -1.190867e-03
1.670000e+01 -1.120534e-03
1.675000e+01 -1.043941e-03
1.680000e+01 -9.611849e-04
1.685000e+01 -8.724022e-04
1.690000e+01 -7.777662e-04
1.695000e+01 -6.774913e-04
1.700000e+01 -5.718300e-04
1.705000e+01 -4.610735e-04
1.710000e+01 -3.455510e-04
1.715000e+01 -2.256279e-04
1.720000e+01 -1.017050e-04
1.725000e+01 2.578299e-05
1.730000e+01 1.563693e-04
1.735000e+01 2.895566e-04
1.740000e+01 4.248197e-04
1.745000e+01 5.616085e-04
1.750000e+01 6.993514e-04
1.755000e+01 8.374591e-04
1.760000e+01 9.753268e-04
1.765000e+01 1.112342e-03
1.770000e+01 1.247880e-03
1.775000e+01 1.381318e-03
1.780000e+01 1.512033e-03
1.785000e+01 1.639406e-03
1.790000e+01 1.762829e-03
1.795000e+01 1.881708e-03
1.800000e+01 1.995468e-03
1.805000e+01 2.103552e-03
1.810000e+01 2.205433e-03
1.815000e+01 2.300607e-03
1.820000e+01 2.388612e-03
1.825000e+01 2.469013e-03
1.830000e+01 2.541425e-03
1.835000e+01 2.605499e-03
1.840000e+01 2.660935e-03
1.845000e+01 2.707476e-03
1.850000e+01 2.744918e-03
1.855000e+01 2.773105e-03
1.860000e+01 2.791937e-03
1.865000e+01 2.801359e-03
1.870000e+01 2.801373e-03
1.875000e+01 2.792029e-03
1.880000e+01 2.773429e-03
1.885000e+01 2.745728e-03
1.890000e+01 2.709131e-03
1.895000e+01 2.663888e-03
1.900000e+01 2.610298e-03
1.905000e+01 2.548701e-03
1.910000e+01 2.479476e-03
1.915000e+01 2.403039e-03
1.920000e+01 2.319838e-03
1.925000e+01 2.230355e-03
1.930000e+01 2.135099e-03
1.935000e+01 2.034599e-03
1.940000e+01 1.929407e-03
1.945000e+01 1.820088e-03
1.950000e+01 1.707217e-03
1.955000e+01 1.591378e-03
1.960000e+01 1.473157e-03
1.965000e+01 1.353138e-03
1.970000e+01 1.231901e-03
1.975000e+01 1.110015e-03
1.980000e+01 9.880378e-04
1.985000e+01 8.665156e-04
1.990000e+01 7.459745e-04
1.995000e+01 6.269207e-04
2.000000e+01 5.098343e-04
2.005000e+01 3.951687e-04
2.010000e+01 2.833472e-04
2.015000e+01 1.747635e-04
2.020000e+01 6.977979e-05
2.025000e+01 -3.127406e-05
2.030000e+01 -1.281024e-04
2.035000e+01 -2.204452e-04
2.040000e+01 -3.080782e-04
2.045000e+01 -3.908121e-04
2.050000e+01 -4.684918e-04
2.055000e+01 -5.409953e-04
2.060000e+01 -6.082349e-04
2.065000e+01 -6.701570e-04
2.070000e+01 -7.267399e-04
2.075000e+01 -7.779935e-04
2.080000e+01 -8.239556e-04
2.085000e+01 -8.646903e-04
2.090000e+01 -9.002857e-04
2.095000e+01 -9.308546e-04
2.100000e+01 -9.565319e-04
2.105000e+01 -9.774739e-04
2.110000e+01 -9.938538e-04
2.115000e+01 -1.005859e-03
2.120000e+01 -1.013690e-03
2.125000e+01 -1.017556e-03
2.130000e+01 -1.017679e-03
2.135000e+01 -1.014285e-03
2.140000e+01 -1.007611e-03
2.145000e+01 -9.978922e-04
2.150000e+01 -9.853693e-04
2.155000e+01 -9.702802e-04
2.160000e+01 -9.528622e-04
2.165000e+01 -9.333508e-04
2.170000e+01 -9.119757e-04
2.175000e+01 -8.889621e-04
2.180000e+01 -8.645271e-04
2.185000e+01 -8.388806e-04
2.190000e+01 -8.122231e-04
2.195000e+01 -7.847479e-04
2.200000e+01 -7.566388e-04
2.205000e+01 -7.280694e-04
2.210000e+01 -6.992027e-04
2.215000e+01 -6.701888e-04
2.220000e+01 -6.411674e-04
2.225000e+01 -6.122672e-04
2.230000e+01 -5.836074e-04
2.235000e+01 -5.552971e-04
2.240000e+01 -5.274350e-04
2.245000e+01 -5.001083e-04
2.250000e+01 -4.733923e-04
2.255000e+01 -4.473524e-04
2.260000e+01 -4.220448e-04
2.265000e+01 -3.975181e-04
2.270000e+01 -3.738124e-04
2.275000e+01 -3.509601e-04
2.280000e+01 -3.289854e-04
2.285000e+01 -3.079050e-04
2.290000e+01 -2.877293e-04
2.295000e+01 -2.684633e-04
2.300000e+01 -2.501074e-04
2.305000e+01 -2.326574e-04
2.310000e+01 -2.161037e-04
2.315000e+01 -2.004328e-04
2.320000e+01 -1.856272e-04
2.325000e+01 -1.716659e-04
2.330000e+01 -1.585260e-04
2.335000e+01 -1.461824e-04
2.340000e+01 -1.346082e-04
2.345000e+01 -1.237747e-04
2.350000e+01 -1.136524e-04
2.355000e+01 -1.042108e-04
2.360000e+01 -9.541949e-05
2.365000e+01 -8.724844e-05
2.370000e+01 -7.966755e-05
2.375000e+01 -7.264664e-05
2.380000e+01 -6.615537e-05
2.385000e+01 -6.016360e-05
2.390000e+01 -5.464173e-05
2.395000e+01 -4.956114e-05
2.400000e+01 -4.489407e-05
2.405000e+01 -4.061354e-05
2.410000e+01 -3.669314e-05
2.415000e+01 -3.310720e-05
2.420000e+01 -2.983125e-05
2.425000e+01 -2.684265e-05
2.430000e+01 -2.412077e-05
2.435000e+01 -2.164655e-05
2.440000e+01 -1.940184e-05
2.445000e+01 -1.736876e-05
2.450000e+01 -1.552967e-05
2.455000e+01 -1.386777e-05
2.460000e+01 -1.236782e-05
2.465000e+01 -1.101638e-05
2.470000e+01 -9.801301e-06
2.475000e+01 -8.710749e-06
2.480000e+01 -7.732768e-06
2.485000e+01 -6.855597e-06
2.490000e+01 -6.068724e-06
2.495000e+01 -5.363693e-06
2.500000e+01 -4.733919e-06
2.505000e+01 -4.173563e-06
2.510000e+01 -3.676214e-06
2.515000e+01 -3.234522e-06
2.520000e+01 -2.841037e-06
2.525000e+01 -2.489643e-06
2.530000e+01 -2.176340e-06
2.535000e+01 -1.898715e-06
2.540000e+01 -1.654511e-06
2.545000e+01 -1.440470e-06
2.550000e+01 -1.252406e-06
2.555000e+01 -1.086389e-06
2.560000e+01 -9.399612e-07
2.565000e+01 -8.122652e-07
2.570000e+01 -7.029440e-07
2.575000e+01 -6.107363e-07
2.580000e+01 -5.329675e-07
2.585000e+01 -4.663328e-07
2.590000e+01 -4.082261e-07
2.595000e+01 -3.574224e-07
2.600000e+01 -3.135486e-07
2.605000e+01 -2.759139e-07
2.610000e+01 -2.428530e-07
2.615000e+01 -2.122343e-07
2.620000e+01 -1.826543e-07
2.625000e+01 -1.541391e-07
2.630000e+01 -1.275832e-07
2.635000e+01 -1.033162e-07
2.640000e+01 -8.004868e-08
2.645000e+01 -5.518316e-08
2.650000e+01 -2.629649e-08
2.655000e+01 7.455889e-09
2.660000e+01 4.522040e-08
2.665000e+01 8.570790e-08
2.670000e+01 1.287343e-07
2.675000e+01 1.757210e-07
2.680000e+01 2.287938e-07
2.685000e+01 2.893770e-07
2.690000e+01 3.576060e-07
2.695000e+01 4.331104e-07
2.700000e+01 5.164663e-07
2.705000e+01 6.100210e-07
2.710000e+01 7.173940e-07
2.715000e+01 8.421652e-07
2.720000e+01 9.869761e-07
2.725000e+01 1.153841e-06
2.730000e+01 1.345331e-06
2.735000e+01 1.565495e-06
2.740000e+01 1.819696e-06
2.745000e+01 2.113569e-06
2.750000e+01 2.452216e-06
2.755000e+01 2.840469e-06
2.760000e+01 3.284110e-06
2.765000e+01 3.790943e-06
2.770000e+01 4.370777e-06
2.775000e+01 5.034336e-06
2.780000e+01 5.792175e-06
2.785000e+01 6.654682e-06
2.790000e+01 7.633322e-06
2.795000e+01 8.742109e-06
2.800000e+01 9.998163e-06
2.805000e+01 1.142095e-05
2.810000e+01 1.303102e-05
2.815000e+01 1.484961e-05
2.820000e+01 1.689937e-05
2.825000e+01 1.920599e-05
2.830000e+01 2.179891e-05
2.835000e+01 2.471109e-05
2.840000e+01 2.797780e-05
2.845000e+01 3.163595e-05
2.850000e+01 3.572476e-05
2.855000e+01 4.028710e-05
2.860000e+01 4.537102e-05
2.865000e+01 5.102986e-05
2.870000e+01 5.732143e-05
2.875000e+01 6.430700e-05
2.880000e+01 7.205124e-05
2.885000e+01 8.062294e-05
2.890000e+01 9.009628e-05
2.895000e+01 1.005510e-04
2.900000e+01 1.120719e-04
2.905000e+01 1.247483e-04
2.910000e+01 1.386738e-04
2.915000e+01 1.539467e-04
2.920000e+01 1.706712e-04
2.925000e+01 1.889577e-04
2.930000e+01 2.089217e-04
2.935000e+01 2.306825e-04
2.940000e+01 2.543631e-04
2.945000e+01 2.800903e-04
