-8.000000e+00 0.000000e+00
-7.950000e+00 0.000000e+00
-7.900000e+00 0.000000e+00
-7.850000e+00 0.000000e+00
-7.800000e+00 0.000000e+00
-7.750000e+00 0.000000e+00
-7.700000e+00 0.000000e+00
-7.650000e+00 0.000000e+00
-7.600000e+00 0.000000e+00
-7.550000e+00 0.000000e+00
-7.500000e+00 0.000000e+00
-7.450000e+00 0.000000e+00
-7.400000e+00 0.000000e+00
-7.350000e+00 0.000000e+00
-7.300000e+00 0.000000e+00
-7.250000e+00 0.000000e+00
-7.200000e+00 0.000000e+00
-7.150000e+00 0.000000e+00
-7.100000e+00 0.000000e+00
-7.050000e+00 0.000000e+00
-7.000000e+00 -1.401298e-45
-6.950000e+00 -1.961818e-44
-6.900000e+00 -1.877740e-43
-6.850000e+00 -1.192505e-42
-6.800000e+00 -6.485209e-42
-6.750000e+00 -2.899987e-41
-6.700000e+00 -1.043729e-40
-6.650000e+00 -2.995878e-40
-6.600000e+00 -6.606239e-40
-6.550000e+00 -9.737048e-40
-6.500000e+00 -2.669530e-40
-6.450000e+00 3.533126e-39
-6.400000e+00 1.228509e-38
-6.350000e+00 2.251227e-38
-6.300000e+00 1.733661e-38
-6.250000e+00 -3.398652e-38
-6.200000e+00 -1.474708e-37
-6.150000e+00 -2.559281e-37
-6.100000e+00 -1.506177e-37
-6.050000e+00 4.241838e-37
-6.000000e+00 1.385549e-36
-5.950000e+00 1.797537e-36
-5.900000e+00 -2.629918e-38
-5.850000e+00 -4.819057e-36
-5.800000e+00 -9.337647e-36
-5.750000e+00 -5.415702e-36
-5.700000e+00 1.334491e-35
-5.650000e+00 3.667001e-35
-5.600000e+00 2.933518e-35
-5.550000e+00 -4.215214e-35
-5.500000e+00 -1.399773e-34
-5.450000e+00 -1.097108e-34
-5.400000e+00 2.013596e-34
-5.350000e+00 6.153831e-34
-5.300000e+00 4.056164e-34
-5.250000e+00 -1.130812e-33
-5.200000e+00 -3.080640e-33
-5.150000e+00 -1.870680e-33
-5.100000e+00 5.933331e-33
-5.050000e+00 1.590255e-32
-5.000000e+00 1.057880e-32
-4.950000e+00 -2.753811e-32
-4.900000e+00 -7.945598e-32
-4.850000e+00 -6.340687e-32
-4.800000e+00 1.099537e-31
-4.750000e+00 3.725158e-31
-4.700000e+00 3.654577e-31
-4.650000e+00 -3.519133e-31
-4.600000e+00 -1.600961e-30
-4.550000e+00 -1.932497e-30
-4.500000e+00 6.972763e-31
-4.450000e+00 6.159126e-30
-4.400000e+00 9.160629e-30
-4.350000e+00 9.569730e-31
-4.300000e+00 -2.061786e-29
-4.250000e+00 -3.846255e-29
-4.200000e+00 -1.849884e-29
-4.150000e+00 5.735262e-29
-4.100000e+00 1.418991e-28
-4.050000e+00 1.153509e-28
-4.000000e+00 -1.179480e-28
-3.950000e+00 -4.555059e-28
-3.900000e+00 -5.211877e-28
-3.850000e+00 8.841906e-29
-3.800000e+00 1.248102e-27
-3.750000e+00 1.917830e-27
-3.700000e+00 6.557424e-28
-3.650000e+00 -2.786727e-27
-3.600000e+00 -5.945373e-27
-3.550000e+00 -4.358296e-27
-3.500000e+00 4.371596e-27
-3.450000e+00 1.555623e-26
-3.400000e+00 1.720510e-26
-3.350000e+00 -1.000052e-27
-3.300000e+00 -3.337836e-26
-3.250000e+00 -5.230361e-26
-3.200000e+00 -2.455340e-26
-3.150000e+00 5.318636e-26
-3.100000e+00 1.283902e-25
-3.050000e+00 1.138004e-25
-3.000000e+00 -3.698252e-26
-2.950000e+00 -2.502632e-25
-2.900000e+00 -3.362793e-25
-2.850000e+00 -1.227420e-25
-2.800000e+00 3.510449e-25
-2.750000e+00 7.517339e-25
-2.700000e+00 6.278938e-25
-2.650000e+00 -1.982256e-25
-2.600000e+00 -1.301748e-24
-2.550000e+00 -1.741266e-24
-2.500000e+00 -6.910541e-25
-2.450000e+00 1.683541e-24
-2.400000e+00 3.782467e-24
-2.350000e+00 3.232937e-24
-2.300000e+00 -1.227078e-24
-2.250000e+00 -7.576761e-24
-2.200000e+00 -1.004810e-23
-2.150000e+00 -2.409611e-24
-2.100000e+00 1.515339e-23
-2.050000e+00 3.014226e-23
-2.000000e+00 2.106074e-23
-1.950000e+00 -2.469310e-23
-1.900000e+00 -8.597000e-23
-1.850000e+00 -1.005558e-22
-1.800000e+00 -2.429756e-24
-1.750000e+00 1.993484e-22
-1.700000e+00 3.587469e-22
-1.650000e+00 2.409204e-22
-1.600000e+00 -2.768351e-22
-1.550000e+00 -9.568847e-22
-1.500000e+00 -1.160381e-21
-1.450000e+00 -2.379592e-22
-1.400000e+00 1.743048e-21
-1.350000e+00 3.491189e-21
-1.300000e+00 2.938996e-21
-1.250000e+00 -1.129147e-21
-1.200000e+00 -7.165810e-21
-1.150000e+00 -1.048216e-20
-1.100000e+00 -5.822486e-21
-1.050000e+00 7.802653e-21
-1.000000e+00 2.339921e-20
-9.499998e-01 2.763728e-20
-9.000001e-01 9.363204e-21
-8.499999e-01 -2.908371e-20
-7.999997e-01 -6.633497e-20
-7.500000e-01 -6.981682e-20
-6.999998e-01 -1.670217e-20
-6.500001e-01 8.276888e-20
-5.999999e-01 1.762246e-19
-5.499997e-01 1.868135e-19
-5.000000e-01 5.667134e-20
-4.499998e-01 -2.009414e-19
-4.000001e-01 -4.698659e-19
-3.499999e-01 -5.511282e-19
-2.999997e-01 -2.545893e-19
-2.500000e-01 4.507761e-19
-1.999998e-01 1.295551e-18
-1.500001e-01 1.699385e-18
-9.999990e-02 1.011758e-18
-4.999971e-02 -9.943865e-19
0.000000e+00 -3.607584e-18
5.000019e-02 -5.088538e-18
1.000004e-01 -3.416957e-18
1.500006e-01 2.174654e-18
1.999998e-01 9.687362e-18
2.500000e-01 1.421354e-17
3.000002e-01 1.018938e-17
3.500004e-01 -4.392955e-18
4.000006e-01 -2.420897e-17
4.499998e-01 -3.667069e-17
5.000000e-01 -2.791945e-17
5.500002e-01 6.943112e-18
6.000004e-01 5.534125e-17
6.500006e-01 8.792917e-17
6.999998e-01 7.239183e-17
7.500000e-01 -3.954026e-18
8.000002e-01 -1.154766e-16
8.500004e-01 -1.987818e-16
9.000006e-01 -1.805705e-16
9.499998e-01 -2.514720e-17
1.000000e+00 2.228316e-16
1.050000e+00 4.320305e-16
1.100000e+00 4.355930e-16
1.150001e+00 1.316655e-16
1.200000e+00 -4.124093e-16
1.250000e+00 -9.236082e-16
1.300000e+00 -1.015888e-15
1.350000e+00 -4.140913e-16
1.400001e+00 7.844564e-16
1.450000e+00 1.986641e-15
1.500000e+00 2.290854e-15
1.550000e+00 1.014944e-15
1.600000e+00 -1.658312e-15
1.650001e+00 -4.365645e-15
1.700000e+00 -5.015158e-15
1.750000e+00 -2.064876e-15
1.800000e+00 3.958527e-15
1.850000e+00 9.809728e-15
1.900001e+00 1.073851e-14
1.950000e+00 3.554374e-15
2.000000e+00 -1.000781e-14
2.050000e+00 -2.222332e-14
2.100000e+00 -2.264566e-14
2.150001e+00 -5.192415e-15
2.200000e+00 2.485190e-14
2.250000e+00 4.963943e-14
2.300000e+00 4.708731e-14
2.350000e+00 6.460941e-15
2.400001e+00 -5.796066e-14
2.450000e+00 -1.069007e-13
2.500000e+00 -9.579664e-14
2.550000e+00 -7.148116e-15
2.600000e+00 1.245631e-13
2.650001e+00 2.179167e-13
2.700000e+00 1.877531e-13
2.750000e+00 8.207513e-15
2.800000e+00 -2.452284e-13
2.850000e+00 -4.146372e-13
2.900001e+00 -3.474664e-13
2.950000e+00 -1.116813e-14
3.000000e+00 4.424395e-13
3.050000e+00 7.282246e-13
3.100000e+00 5.935140e-13
3.150001e+00 1.117634e-14
3.200000e+00 -7.351128e-13
3.250000e+00 -1.168401e-12
3.300000e+00 -9.096725e-13
3.350000e+00 2.460906e-14
3.400001e+00 1.136784e-12
3.450000e+00 1.692186e-12
3.500000e+00 1.195007e-12
3.550000e+00 -2.010038e-13
3.600000e+00 -1.668120e-12
3.650001e+00 -2.173832e-12
3.700000e+00 -1.202737e-12
3.750000e+00 7.582511e-13
3.800000e+00 2.392832e-12
3.850000e+00 2.398861e-12
3.900001e+00 4.994673e-13
3.950000e+00 -2.127390e-12
4.000000e+00 -3.469603e-12
4.050000e+00 -2.105958e-12
4.100000e+00 1.502710e-12
4.150001e+00 4.915006e-12
4.200000e+00 5.176412e-12
4.250000e+00 1.078304e-12
4.300000e+00 -5.385056e-12
4.350000e+00 -9.721383e-12
4.400001e+00 -7.807427e-12
4.450000e+00 7.754309e-13
4.500000e+00 1.141627e-11
4.550000e+00 1.668833e-11
4.600000e+00 1.126836e-11
4.650001e+00 -3.546281e-12
4.700000e+00 -1.924623e-11
4.750000e+00 -2.478531e-11
4.800000e+00 -1.417272e-11
4.850000e+00 8.079323e-12
4.900001e+00 2.817439e-11
4.950000e+00 3.137191e-11
5.000000e+00 1.265734e-11
5.050000e+00 -1.775116e-11
5.100000e+00 -3.916336e-11
5.150001e+00 -3.386955e-11
5.200000e+00 -9.255708e-13
5.250000e+00 3.991118e-11
5.300000e+00 5.885289e-11
5.350000e+00 3.617530e-11
5.400001e+00 -2.131651e-11
5.450000e+00 -8.009676e-11
5.500000e+00 -9.887944e-11
5.550000e+00 -5.616415e-11
5.600000e+00 3.198837e-11
5.650001e+00 1.178524e-10
5.700000e+00 1.503105e-10
5.750000e+00 1.079652e-10
5.800000e+00 1.412120e-11
5.850000e+00 -7.850642e-11
5.900001e+00 -1.243868e-10
5.950000e+00 -1.172362e-10
6.000000e+00 -9.241655e-11
6.050000e+00 -9.464665e-11
6.100000e+00 -1.328426e-10
6.150001e+00 -1.577763e-10
6.200000e+00 -8.647395e-11
6.250000e+00 1.351647e-10
6.300000e+00 4.716475e-10
6.350000e+00 7.858176e-10
6.400001e+00 8.949447e-10
6.450000e+00 6.686662e-10
6.500000e+00 1.093560e-10
6.550000e+00 -6.388133e-10
6.600000e+00 -1.360832e-09
6.650001e+00 -1.874925e-09
6.700000e+00 -2.096862e-09
6.750000e+00 -2.018222e-09
6.800000e+00 -1.617724e-09
6.850000e+00 -7.836737e-10
6.900001e+00 6.682312e-10
6.950000e+00 2.857069e-09
7.000000e+00 5.644810e-09
7.050000e+00 8.514879e-09
7.100000e+00 1.062396e-08
7.150001e+00 1.103160e-08
7.200000e+00 8.997683e-09
7.250000e+00 4.185093e-09
7.300000e+00 -3.342811e-09
7.350000e+00 -1.331149e-08
7.400001e+00 -2.547214e-08
7.450000e+00 -3.972110e-08
7.500000e+00 -5.602887e-08
7.550000e+00 -7.425852e-08
7.600000e+00 -9.405381e-08
7.650001e+00 -1.149496e-07
7.700000e+00 -1.367022e-07
7.750000e+00 -1.596629e-07
7.800000e+00 -1.849459e-07
7.850000e+00 -2.142395e-07
7.900001e+00 -2.493320e-07
7.950000e+00 -2.916160e-07
8.000000e+00 -3.418722e-07
8.050001e+00 -4.004688e-07
8.100000e+00 -4.678499e-07
8.150000e+00 -5.449962e-07
8.200001e+00 -6.335638e-07
8.250000e+00 -7.356314e-07
8.300001e+00 -8.532577e-07
8.350000e+00 -9.882014e-07
8.400000e+00 -1.142045e-06
8.450001e+00 -1.316686e-06
8.500000e+00 -1.514905e-06
8.550001e+00 -1.740627e-06
8.600000e+00 -1.998701e-06
8.650000e+00 -2.294345e-06
8.700001e+00 -2.632602e-06
8.750000e+00 -3.018167e-06
8.800001e+00 -3.455696e-06
8.850000e+00 -3.950364e-06
8.900000e+00 -4.508350e-06
8.950001e+00 -5.136972e-06
9.000000e+00 -5.844557e-06
9.050001e+00 -6.640270e-06
9.100000e+00 -7.534167e-06
9.150000e+00 -8.537523e-06
9.200001e+00 -9.663157e-06
9.250000e+00 -1.092545e-05
9.300001e+00 -1.233994e-05
9.350000e+00 -1.392260e-05
9.400000e+00 -1.568943e-05
9.450001e+00 -1.765671e-05
9.500000e+00 -1.984187e-05
9.550001e+00 -2.226475e-05
9.600000e+00 -2.494840e-05
9.650000e+00 -2.791898e-05
9.700001e+00 -3.120504e-05
9.750000e+00 -3.483617e-05
9.800001e+00 -3.884253e-05
9.850000e+00 -4.325474e-05
9.900000e+00 -4.810488e-05
9.950001e+00 -5.342748e-05
1.000000e+01 -5.925989e-05
1.005000e+01 -6.564217e-05
1.010000e+01 -7.261607e-05
1.015000e+01 -8.022467e-05
1.020000e+01 -8.851216e-05
1.025000e+01 -9.752443e-05
1.030000e+01 -1.073099e-04
1.035000e+01 -1.179196e-04
1.040000e+01 -1.294064e-04
1.045000e+01 -1.418237e-04
1.050000e+01 -1.552244e-04
1.055000e+01 -1.696604e-04
1.060000e+01 -1.851831e-04
1.065000e+01 -2.018446e-04
1.070000e+01 -2.196986e-04
1.075000e+01 -2.387998e-04
1.080000e+01 -2.592024e-04
1.085000e+01 -2.809587e-04
1.090000e+01 -3.041165e-04
1.095000e+01 -3.287192e-04
1.100000e+01 -3.548056e-04
1.105000e+01 -3.824104e-04
1.110000e+01 -4.115654e-04
1.115000e+01 -4.422981e-04
1.120000e+01 -4.746324e-04
1.125000e+01 -5.085846e-04
1.130000e+01 -5.441626e-04
1.135000e+01 -5.813659e-04
1.140000e+01 -6.201819e-04
1.145000e+01 -6.605874e-04
1.150000e+01 -7.025478e-04
1.155000e+01 -7.460172e-04
1.160000e+01 -7.909387e-04
1.165000e+01 -8.372438e-04
1.170000e+01 -8.848520e-04
1.175000e+01 -9.336682e-04
1.180000e+01 -9.835840e-04
1.185000e+01 -1.034471e-03
1.190000e+01 -1.086185e-03
1.195000e+01 -1.138563e-03
1.200000e+01 -1.191425e-03
1.205000e+01 -1.244576e-03
1.210000e+01 -1.297804e-03
1.215000e+01 -1.350889e-03
1.220000e+01 -1.403586e-03
1.225000e+01 -1.455642e-03
1.230000e+01 -1.506785e-03
1.235000e+01 -1.556726e-03
1.240000e+01 -1.605165e-03
1.245000e+01 -1.651787e-03
1.250000e+01 -1.696264e-03
1.255000e+01 -1.738266e-03
1.260000e+01 -1.777448e-03
1.265000e+01 -1.813461e-03
1.270000e+01 -1.845957e-03
1.275000e+01 -1.874578e-03
1.280000e+01 -1.898971e-03
1.285000e+01 -1.918782e-03
1.290000e+01 -1.933665e-03
1.295000e+01 -1.943278e-03
1.300000e+01 -1.947294e-03
1.305000e+01 -1.945397e-03
1.310000e+01 -1.937286e-03
1.315000e+01 -1.922680e-03
1.320000e+01 -1.901321e-03
1.325000e+01 -1.872973e-03
1.330000e+01 -1.837429e-03
1.335000e+01 -1.794513e-03
1.340000e+01 -1.744080e-03
1.345000e+01 -1.686021e-03
1.350000e+01 -1.620264e-03
1.355000e+01 -1.546774e-03
1.360000e+01 -1.465562e-03
1.365000e+01 -1.376682e-03
1.370000e+01 -1.280232e-03
1.375000e+01 -1.176357e-03
1.380000e+01 -1.065249e-03
1.385000e+01 -9.471450e-04
1.390000e+01 -8.223289e-04
1.395000e+01 -6.911333e-04
1.400000e+01 -5.539358e-04
1.405000e+01 -4.111583e-04
1.410000e+01 -2.632684e-04
1.415000e+01 -1.107733e-04
1.420000e+01 4.577839e-05
1.425000e+01 2.058000e-04
1.430000e+01 3.686700e-04
1.435000e+01 5.337354e-04
1.440000e+01 7.003166e-04
1.445000e+01 8.677119e-04
1.450000e+01 1.035201e-03
1.455000e+01 1.202047e-03
1.460000e+01 1.367503e-03
1.465000e+01 1.530812e-03
1.470000e+01 1.691222e-03
1.475000e+01 1.847981e-03
1.480000e+01 2.000354e-03
1.485000e+01 2.147616e-03
1.490000e+01 2.289063e-03
1.495000e+01 2.424014e-03
1.500000e+01 2.551817e-03
1.505000e+01 2.671849e-03
1.510000e+01 2.783531e-03
1.515000e+01 2.886327e-03
1.520000e+01 2.979747e-03
1.525000e+01 3.063348e-03
1.530000e+01 3.136743e-03
1.535000e+01 3.199599e-03
1.540000e+01 3.251644e-03
1.545000e+01 3.292663e-03
1.550000e+01 3.322509e-03
1.555000e+01 3.341086e-03
1.560000e+01 3.348369e-03
1.565000e+01 3.344385e-03
1.570000e+01 3.329237e-03
1.575000e+01 3.303080e-03
1.580000e+01 3.266133e-03
1.585000e+01 3.218676e-03
1.590000e+01 3.161035e-03
1.595000e+01 3.093593e-03
1.600000e+01 3.016781e-03
1.605000e+01 2.931078e-03
1.610000e+01 2.837008e-03
1.615000e+01 2.735131e-03
1.620000e+01 2.626039e-03
1.625000e+01 2.510359e-03
1.630000e+01 2.388732e-03
1.635000e+01 2.261826e-03
1.640000e+01 2.130324e-03
1.645000e+01 1.994919e-03
1.650000e+01 1.856310e-03
1.655000e+01 1.715196e-03
1.660000e+01 1.572267e-03
1.665000e+01 1.428211e-03
1.670000e+01 1.283702e-03
1.675000e+01 1.139400e-03
1.680000e+01 9.959437e-04
1.685000e+01 8.539449e-04
1.690000e+01 7.139868e-04
1.695000e+01 5.766216e-04
1.700000e+01 4.423698e-04
1.705000e+01 3.117171e-04
1.710000e+01 1.851123e-04
1.715000e+01 6.296555e-05
1.720000e+01 -5.435451e-05
1.725000e+01 -1.665210e-04
1.730000e+01 -2.732476e-04
1.735000e+01 -3.742888e-04
1.740000e+01 -4.694396e-04
1.745000e+01 -5.585384e-04
1.750000e+01 -6.414642e-04
1.755000e+01 -7.181385e-04
1.760000e+01 -7.885202e-04
1.765000e+01 -8.526036e-04
1.770000e+01 -9.104171e-04
1.775000e+01 -9.620208e-04
1.780000e+01 -1.007507e-03
1.785000e+01 -1.046997e-03
1.790000e+01 -1.080641e-03
1.795000e+01 -1.108611e-03
1.800000e+01 -1.131101e-03
1.805000e+01 -1.148324e-03
1.810000e+01 -1.160510e-03
1.815000e+01 -1.167904e-03
1.820000e+01 -1.170763e-03
1.825000e+01 -1.169354e-03
1.830000e+01 -1.163952e-03
1.835000e+01 -1.154837e-03
1.840000e+01 -1.142286e-03
1.845000e+01 -1.126582e-03
1.850000e+01 -1.108004e-03
1.855000e+01 -1.086828e-03
1.860000e+01 -1.063330e-03
1.865000e+01 -1.037776e-03
1.870000e+01 -1.010427e-03
1.875000e+01 -9.815373e-04
1.880000e+01 -9.513458e-04
1.885000e+01 -9.200835e-04
1.890000e+01 -8.879712e-04
1.895000e+01 -8.552175e-04
1.900000e+01 -8.220199e-04
1.905000e+01 -7.885636e-04
1.910000e+01 -7.550187e-04
1.915000e+01 -7.215428e-04
1.920000e+01 -6.882794e-04
1.925000e+01 -6.553605e-04
1.930000e+01 -6.229058e-04
1.935000e+01 -5.910226e-04
1.940000e+01 -5.598047e-04
1.945000e+01 -5.293336e-04
1.950000e+01 -4.996802e-04
1.955000e+01 -4.709058e-04
1.960000e+01 -4.430623e-04
1.965000e+01 -4.161940e-04
1.970000e+01 -3.903331e-04
1.975000e+01 -3.655045e-04
1.980000e+01 -3.417221e-04
1.985000e+01 -3.189946e-04
1.990000e+01 -2.973243e-04
1.995000e+01 -2.767083e-04
2.000000e+01 -2.571375e-04
2.005000e+01 -2.385968e-04
2.010000e+01 -2.210661e-04
2.015000e+01 -2.045227e-04
2.020000e+01 -1.889420e-04
2.025000e+01 -1.742975e-04
2.030000e+01 -1.605597e-04
2.035000e+01 -1.476954e-04
2.040000e+01 -1.356689e-04
2.045000e+01 -1.244430e-04
2.050000e+01 -1.139818e-04
2.055000e+01 -1.042497e-04
2.060000e+01 -9.521193e-05
2.065000e+01 -8.683219e-05
2.070000e+01 -7.907392e-05
2.075000e+01 -7.190066e-05
2.080000e+01 -6.527801e-05
2.085000e+01 -5.917345e-05
2.090000e+01 -5.355537e-05
2.095000e+01 -4.839196e-05
2.100000e+01 -4.365079e-05
2.105000e+01 -3.930022e-05
2.110000e+01 -3.531058e-05
2.115000e+01 -3.165490e-05
2.120000e+01 -2.830781e-05
2.125000e+01 -2.524410e-05
2.130000e+01 -2.243811e-05
2.135000e+01 -1.986449e-05
2.140000e+01 -1.749953e-05
2.145000e+01 -1.532170e-05
2.150000e+01 -1.331083e-05
2.155000e+01 -1.144652e-05
2.160000e+01 -9.707298e-06
2.165000e+01 -8.071141e-06
2.170000e+01 -6.517022e-06
2.175000e+01 -5.025832e-06
2.180000e+01 -3.579882e-06
2.185000e+01 -2.161340e-06
2.190000e+01 -7.508582e-07
2.195000e+01 6.724389e-07
2.200000e+01 2.129855e-06
2.205000e+01 3.642063e-06
2.210000e+01 5.229254e-06
2.215000e+01 6.912518e-06
2.220000e+01 8.715360e-06
2.225000e+01 1.066425e-05
2.230000e+01 1.278799e-05
2.235000e+01 1.511665e-05
2.240000e+01 1.768126e-05
2.245000e+01 2.051457e-05
2.250000e+01 2.365229e-05
2.255000e+01 2.713385e-05
2.260000e+01 3.100216e-05
2.265000e+01 3.530306e-05
2.270000e+01 4.008517e-05
2.275000e+01 4.540066e-05
2.280000e+01 5.130632e-05
2.285000e+01 5.786452e-05
2.290000e+01 6.514288e-05
2.295000e+01 7.321381e-05
2.300000e+01 8.215411e-05
2.305000e+01 9.204517e-05
2.310000e+01 1.029738e-04
2.315000e+01 1.150330e-04
2.320000e+01 1.283222e-04
2.325000e+01 1.429471e-04
2.330000e+01 1.590190e-04
2.335000e+01 1.766554e-04
2.340000e+01 1.959796e-04
2.345000e+01 2.171215e-04
2.350000e+01 2.402177e-04
2.355000e+01 2.654107e-04
2.360000e+01 2.928488e-04
2.365000e+01 3.226846e-04
2.370000e+01 3.550759e-04
2.375000e+01 3.901834e-04
2.380000e+01 4.281730e-04
2.385000e+01 4.692134e-04
2.390000e+01 5.134767e-04
2.395000e+01 5.611369e-04
2.400000e+01 6.123691e-04
2.405000e+01 6.673475e-04
2.410000e+01 7.262441e-04
2.415000e+01 7.892270e-04
2.420000e+01 8.564600e-04
2.425000e+01 9.280989e-04
2.430000e+01 1.004292e-03
2.435000e+01 1.085177e-03
2.440000e+01 1.170879e-03
2.445000e+01 1.261507e-03
2.450000e+01 1.357154e-03
2.455000e+01 1.457894e-03
2.460000e+01 1.563776e-03
2.465000e+01 1.674829e-03
2.470000e+01 1.791054e-03
2.475000e+01 1.912424e-03
2.480000e+01 2.038877e-03
2.485000e+01 2.170320e-03
2.490000e+01 2.306621e-03
2.495000e+01 2.447608e-03
2.500000e+01 2.593065e-03
2.505000e+01 2.742736e-03
2.510000e+01 2.896313e-03
2.515000e+01 3.053440e-03
2.520000e+01 3.213712e-03
2.525000e+01 3.376673e-03
2.530000e+01 3.541805e-03
2.535000e+01 3.708547e-03
2.540000e+01 3.876273e-03
2.545000e+01 4.044310e-03
2.550000e+01 4.211924e-03
2.555000e+01 4.378329e-03
2.560000e+01 4.542678e-03
2.565000e+01 4.704088e-03
2.570000e+01 4.861616e-03
2.575000e+01 5.014275e-03
2.580000e+01 5.161042e-03
2.585000e+01 5.300847e-03
2.590000e+01 5.432589e-03
2.595000e+01 5.555138e-03
2.600000e+01 5.667344e-03
2.605000e+01 5.768039e-03
2.610000e+01 5.856042e-03
2.615000e+01 5.930178e-03
2.620000e+01 5.989265e-03
2.625000e+01 6.032145e-03
2.630000e+01 6.057674e-03
2.635000e+01 6.064746e-03
2.640000e+01 6.052297e-03
2.645000e+01 6.019306e-03
2.650000e+01 5.964824e-03
2.655000e+01 5.887968e-03
2.660000e+01 5.787926e-03
2.665000e+01 5.663984e-03
2.670000e+01 5.515530e-03
2.675000e+01 5.342050e-03
2.680000e+01 5.143161e-03
2.685000e+01 4.918592e-03
2.690000e+01 4.668210e-03
2.695000e+01 4.392021e-03
2.700000e+01 4.090177e-03
2.705000e+01 3.762980e-03
2.710000e+01 3.410889e-03
2.715000e+01 3.034516e-03
2.720000e+01 2.634639e-03
2.725000e+01 2.212192e-03
2.730000e+01 1.768270e-03
2.735000e+01 1.304129e-03
2.740000e+01 8.211779e-04
2.745000e+01 3.209784e-04
2.750000e+01 -1.947630e-04
2.755000e+01 -7.241995e-04
2.760000e+01 -1.265355e-03
2.765000e+01 -1.816133e-03
2.770000e+01 -2.374326e-03
2.775000e+01 -2.937634e-03
2.780000e+01 -3.503670e-03
2.785000e+01 -4.069975e-03
2.790000e+01 -4.634020e-03
2.795000e+01 -5.193262e-03
2.800000e+01 -5.745114e-03
2.805000e+01 -6.286988e-03
2.810000e+01 -6.816311e-03
2.815000e+01 -7.330529e-03
2.820000e+01 -7.827125e-03
2.825000e+01 -8.303680e-03
2.830000e+01 -8.757810e-03
2.835000e+01 -9.187260e-03
2.840000e+01 -9.589873e-03
2.845000e+01 -9.963625e-03
2.850000e+01 -1.030663e-02
2.855000e+01 -1.061717e-02
2.860000e+01 -1.089369e-02
2.865000e+01 -1.113480e-02
2.870000e+01 -1.133933e-02
2.875000e+01 -1.150629e-02
2.880000e+01 -1.163491e-02
2.885000e+01 -1.172460e-02
2.890000e+01 -1.177504e-02
2.895000e+01 -1.178607e-02
2.900000e+01 -1.175780e-02
2.905000e+01 -1.169052e-02
2.910000e+01 -1.158475e-02
2.915000e+01 -1.144123e-02
2.920000e+01 -1.126088e-02
2.925000e+01 -1.104483e-02
2.930000e+01 -1.079439e-02
2.935000e+01 -1.051106e-02
2.940000e+01 -1.019651e-02
2.945000e+01 -9.852517e-03
