-8.000000e+00 0.000000e+00
-7.950000e+00 0.000000e+00
-7.900000e+00 0.000000e+00
-7.850000e+00 0.000000e+00
-7.800000e+00 0.000000e+00
-7.750000e+00 0.000000e+00
-7.700000e+00 0.000000e+00
-7.650000e+00 0.000000e+00
-7.600000e+00 0.000000e+00
-7.550000e+00 0.000000e+00
-7.500000e+00 0.000000e+00
-7.450000e+00 0.000000e+00
-7.400000e+00 0.000000e+00
-7.350000e+00 0.000000e+00
-7.300000e+00 -9.317794e-41
-7.250000e+00 -5.163439e-39
-7.200000e+00 -1.221708e-37
-7.150000e+00 -1.703534e-36
-7.100000e+00 -1.584766e-35
-7.050000e+00 -1.062096e-34
-7.000000e+00 -5.383288e-34
-6.950000e+00 -2.119269e-33
-6.900000e+00 -6.513994e-33
-6.850000e+00 -1.522865e-32
-6.800000e+00 -2.429310e-32
-6.750000e+00 -1.290145e-32
-6.700000e+00 6.383931e-32
-6.650000e+00 2.430753e-31
-6.600000e+00 4.410308e-31
-6.550000e+00 3.035798e-31
-6.500000e+00 -7.151292e-31
-6.450000e+00 -2.653388e-30
-6.400000e+00 -3.851416e-30
-6.350000e+00 -8.097277e-31
-6.300000e+00 8.515866e-30
-6.250000e+00 1.848150e-29
-6.200000e+00 1.425837e-29
-6.150000e+00 -1.446032e-29
-6.100000e+00 -4.997222e-29
-6.050000e+00 -4.844266e-29
-6.000000e+00 1.839200e-30
-5.950000e+00 2.257876e-29
-5.900000e+00 -5.619589e-29
-5.850000e+00 -1.762075e-29
-5.800000e+00 6.504927e-28
-5.750000e+00 1.801082e-27
-5.700000e+00 1.153142e-27
-5.650000e+00 -4.805737e-27
-5.600000e+00 -1.438628e-26
-5.550000e+00 -1.266267e-26
-5.500000e+00 2.216430e-26
-5.450000e+00 8.330402e-26
-5.400000e+00 9.287552e-26
-5.350000e+00 -6.928934e-26
-5.300000e+00 -3.965082e-25
-5.250000e+00 -5.437981e-25
-5.200000e+00 7.964619e-26
-5.150000e+00 1.596462e-24
-5.100000e+00 2.687238e-24
-5.050000e+00 7.503966e-25
-5.000000e+00 -5.408686e-24
-4.950000e+00 -1.145860e-23
-4.900000e+00 -7.119358e-24
-4.850000e+00 1.481101e-23
-4.800000e+00 4.252370e-23
-4.750000e+00 3.958796e-23
-4.700000e+00 -2.832080e-23
-4.650000e+00 -1.372059e-22
-4.600000e+00 -1.717367e-22
-4.550000e+00 6.752119e-24
-4.500000e+00 3.798248e-22
-4.450000e+00 6.245067e-22
-4.400000e+00 2.519619e-22
-4.350000e+00 -8.679098e-22
-4.300000e+00 -1.952242e-21
-4.250000e+00 -1.477489e-21
-4.200000e+00 1.449913e-21
-4.150000e+00 5.271830e-21
-4.100000e+00 5.773908e-21
-4.050000e+00 -7.449840e-22
-4.000000e+00 -1.214696e-20
-3.950000e+00 -1.812746e-20
-3.900000e+00 -6.492262e-21
-3.850000e+00 2.289521e-20
-3.800000e+00 4.809779e-20
-3.750000e+00 3.486582e-20
-3.700000e+00 -3.063450e-20
-3.650000e+00 -1.093036e-19
-3.600000e+00 -1.170608e-19
-3.550000e+00 6.842740e-21
-3.500000e+00 2.106940e-19
-3.450000e+00 3.128609e-19
-3.400000e+00 1.260033e-19
-3.350000e+00 -3.286034e-19
-3.300000e+00 -7.085689e-19
-3.250000e+00 -5.362796e-19
-3.200000e+00 3.426647e-19
-3.150000e+00 1.384554e-18
-3.100000e+00 1.533066e-18
-3.050000e+00 9.004161e-20
-3.000000e+00 -2.302049e-18
-2.950000e+00 -3.592337e-18
-2.900000e+00 -1.757492e-18
-2.850000e+00 2.996549e-18
-2.800000e+00 7.234822e-18
-2.750000e+00 6.203870e-18
-2.700000e+00 -1.865192e-18
-2.650000e+00 -1.236688e-17
-2.600000e+00 -1.582128e-17
-2.550000e+00 -5.094824e-18
-2.500000e+00 1.627954e-17
-2.450000e+00 3.251369e-17
-2.400000e+00 2.529994e-17
-2.350000e+00 -9.675870e-18
-2.300000e+00 -5.242389e-17
-2.250000e+00 -6.682459e-17
-2.200000e+00 -2.703107e-17
-2.150000e+00 5.499571e-17
-2.100000e+00 1.250497e-16
-2.050000e+00 1.174889e-16
-2.000000e+00 6.960120e-18
-1.950000e+00 -1.555266e-16
-1.900000e+00 -2.569720e-16
-1.850000e+00 -1.915994e-16
-1.800000e+00 5.262931e-17
-1.750000e+00 3.517610e-16
-1.700000e+00 4.937891e-16
-1.650000e+00 3.095488e-16
-1.600000e+00 -1.833565e-16
-1.550000e+00 -7.255453e-16
-1.500000e+00 -9.222353e-16
-1.450000e+00 -4.918400e-16
-1.400000e+00 4.754890e-16
-1.350000e+00 1.442621e-15
-1.300000e+00 1.665792e-15
-1.250000e+00 6.914494e-16
-1.200000e+00 -1.177182e-15
-1.150000e+00 -2.824002e-15
-1.100000e+00 -2.878707e-15
-1.050000e+00 -6.854020e-16
-1.000000e+00 2.918542e-15
-9.499998e-01 5.672441e-15
-9.000001e-01 5.049306e-15
-8.499999e-01 3.204382e-17
-7.999997e-01 -7.512021e-15
-7.500000e-01 -1.290637e-14
-6.999998e-01 -1.068462e-14
-6.500001e-01 1.866283e-15
-5.999999e-01 2.108365e-14
-5.499997e-01 3.558251e-14
-5.000000e-01 2.981792e-14
-4.499998e-01 -6.246113e-15
-4.000001e-01 -6.426462e-14
-3.499999e-01 -1.101151e-13
-2.999997e-01 -9.368821e-14
-2.500000e-01 1.842706e-14
-1.999998e-01 1.991628e-13
-1.500001e-01 3.388751e-13
-9.999990e-02 2.831929e-13
-4.999971e-02 -5.924186e-14
0.000000e+00 -5.889193e-13
5.000019e-02 -9.722699e-13
1.000004e-01 -7.810856e-13
1.500006e-01 1.914515e-13
1.999998e-01 1.609890e-12
2.500000e-01 2.553882e-12
3.000002e-01 1.958307e-12
3.500004e-01 -5.672906e-13
4.000006e-01 -4.033521e-12
4.499998e-01 -6.144642e-12
5.000000e-01 -4.500594e-12
5.500002e-01 1.498974e-12
6.000004e-01 9.277097e-12
6.500006e-01 1.361428e-11
6.999998e-01 9.558954e-12
7.500000e-01 -3.550959e-12
8.000002e-01 -1.968161e-11
8.500004e-01 -2.791914e-11
9.000006e-01 -1.884468e-11
9.499998e-01 7.665069e-12
1.000000e+00 3.871087e-11
1.050000e+00 5.316132e-11
1.100000e+00 3.446445e-11
1.150001e+00 -1.538446e-11
1.200000e+00 -7.091040e-11
1.250000e+00 -9.407640e-11
1.300000e+00 -5.811657e-11
1.350000e+00 2.937355e-11
1.400001e+00 1.215164e-10
1.450000e+00 1.545704e-10
1.500000e+00 8.916931e-11
1.550000e+00 -5.462471e-11
1.600000e+00 -1.959219e-10
1.650001e+00 -2.353336e-10
1.700000e+00 -1.214784e-10
1.750000e+00 1.007492e-10
1.800000e+00 2.997941e-10
1.850000e+00 3.317319e-10
1.900001e+00 1.402129e-10
1.950000e+00 -1.847353e-10
2.000000e+00 -4.406903e-10
2.050000e+00 -4.346775e-10
2.100000e+00 -1.227563e-10
2.150001e+00 3.301521e-10
2.200000e+00 6.290966e-10
2.250000e+00 5.359752e-10
2.300000e+00 4.940480e-11
2.350000e+00 -5.535871e-10
2.400001e+00 -8.682873e-10
2.450000e+00 -6.293259e-10
2.500000e+00 7.941459e-11
2.550000e+00 8.323889e-10
2.600000e+00 1.115415e-09
2.650001e+00 6.780505e-10
2.700000e+00 -2.549256e-10
2.750000e+00 -1.085665e-09
2.800000e+00 -1.227509e-09
2.850000e+00 -5.291115e-10
2.900001e+00 5.663704e-10
2.950000e+00 1.278465e-09
3.000000e+00 1.027978e-09
3.050000e+00 -1.038691e-10
3.100000e+00 -1.346086e-09
3.150001e+00 -1.717361e-09
3.200000e+00 -7.278821e-10
3.250000e+00 1.183592e-09
3.300000e+00 2.830421e-09
3.350000e+00 3.018628e-09
3.400001e+00 1.373585e-09
3.450000e+00 -1.332990e-09
3.500000e+00 -3.632268e-09
3.550000e+00 -4.314927e-09
3.600000e+00 -3.229406e-09
3.650001e+00 -1.323079e-09
3.700000e+00 1.437045e-10
3.750000e+00 6.467014e-10
3.800000e+00 8.855062e-10
3.850000e+00 2.244782e-09
3.900001e+00 5.536428e-09
3.950000e+00 9.959017e-09
4.000000e+00 1.317759e-08
4.050000e+00 1.266273e-08
4.100000e+00 7.430928e-09
4.150001e+00 -1.145297e-09
4.200000e+00 -1.027972e-08
4.250000e+00 -1.803687e-08
4.300000e+00 -2.535381e-08
4.350000e+00 -3.614542e-08
4.400001e+00 -5.499760e-08
4.450000e+00 -8.373261e-08
4.500000e+00 -1.192560e-07
4.550000e+00 -1.546015e-07
4.600000e+00 -1.830787e-07
4.650001e+00 -2.031457e-07
4.700000e+00 -2.206970e-07
4.750000e+00 -2.467650e-07
4.800000e+00 -2.915409e-07
4.850000e+00 -3.582931e-07
4.900001e+00 -4.412607e-07
4.950000e+00 -5.293510e-07
5.000000e+00 -6.137209e-07
5.050000e+00 -6.945369e-07
5.100000e+00 -7.823812e-07
5.150001e+00 -8.930500e-07
5.200000e+00 -1.038847e-06
5.250000e+00 -1.222017e-06
5.300000e+00 -1.434816e-06
5.350000e+00 -1.666460e-06
5.400001e+00 -1.912553e-06
5.450000e+00 -2.180723e-06
5.500000e+00 -2.488545e-06
5.550000e+00 -2.854941e-06
5.600000e+00 -3.290712e-06
5.650001e+00 -3.794682e-06
5.700000e+00 -4.358313e-06
5.750000e+00 -4.975994e-06
5.800000e+00 -5.654311e-06
5.850000e+00 -6.414099e-06
5.900001e+00 -7.283767e-06
5.950000e+00 -8.288136e-06
6.000000e+00 -9.439967e-06
6.050000e+00 -1.073964e-05
6.100000e+00 -1.218314e-05
6.150001e+00 -1.377328e-05
6.200000e+00 -1.552745e-05
6.250000e+00 -1.747740e-05
6.300000e+00 -1.966216e-05
6.350000e+00 -2.211875e-05
6.400001e+00 -2.487617e-05
6.450000e+00 -2.795530e-05
6.500000e+00 -3.137346e-05
6.550000e+00 -3.514997e-05
6.600000e+00 -3.931001e-05
6.650001e+00 -4.388576e-05
6.700000e+00 -4.891647e-05
6.750000e+00 -5.444843e-05
6.800000e+00 -6.053488e-05
6.850000e+00 -6.723413e-05
6.900001e+00 -7.460489e-05
6.950000e+00 -8.270013e-05
7.000000e+00 -9.156312e-05
7.050000e+00 -1.012294e-04
7.100000e+00 -1.117356e-04
7.150001e+00 -1.231306e-04
7.200000e+00 -1.354833e-04
7.250000e+00 -1.488808e-04
7.300000e+00 -1.634161e-04
7.350000e+00 -1.791731e-04
7.400001e+00 -1.962163e-04
7.450000e+00 -2.145926e-04
7.500000e+00 -2.343440e-04
7.550000e+00 -2.555246e-04
7.600000e+00 -2.782097e-04
7.650001e+00 -3.024920e-04
7.700000e+00 -3.284669e-04
7.750000e+00 -3.562144e-04
7.800000e+00 -3.857902e-04
7.850000e+00 -4.172302e-04
7.900001e+00 -4.505650e-04
7.950000e+00 -4.858354e-04
8.000000e+00 -5.230975e-04
8.050001e+00 -5.624161e-04
8.100000e+00 -6.038488e-04
8.150000e+00 -6.474301e-04
8.200001e+00 -6.931654e-04
8.250000e+00 -7.410356e-04
8.300001e+00 -7.910088e-04
8.350000e+00 -8.430522e-04
8.400000e+00 -8.971355e-04
8.450001e+00 -9.532272e-04
8.500000e+00 -1.011284e-03
8.550001e+00 -1.071241e-03
8.600000e+00 -1.133002e-03
8.650000e+00 -1.196444e-03
8.700001e+00 -1.261418e-03
8.750000e+00 -1.327756e-03
8.800001e+00 -1.395278e-03
8.850000e+00 -1.463792e-03
8.900000e+00 -1.533089e-03
8.950001e+00 -1.602942e-03
9.000000e+00 -1.673098e-03
9.050001e+00 -1.743279e-03
9.100000e+00 -1.813180e-03
9.150000e+00 -1.882474e-03
9.200001e+00 -1.950816e-03
9.250000e+00 -2.017847e-03
9.300001e+00 -2.083189e-03
9.350000e+00 -2.146451e-03
9.400000e+00 -2.207226e-03
9.450001e+00 -2.265094e-03
9.500000e+00 -2.319620e-03
9.550001e+00 -2.370361e-03
9.600000e+00 -2.416863e-03
9.650000e+00 -2.458667e-03
9.700001e+00 -2.495318e-03
9.750000e+00 -2.526364e-03
9.800001e+00 -2.551360e-03
9.850000e+00 -2.569869e-03
9.900000e+00 -2.581463e-03
9.950001e+00 -2.585724e-03
1.000000e+01 -2.582247e-03
1.005000e+01 -2.570656e-03
1.010000e+01 -2.550601e-03
1.015000e+01 -2.521773e-03
1.020000e+01 -2.483888e-03
1.025000e+01 -2.436702e-03
1.030000e+01 -2.380002e-03
1.035000e+01 -2.313619e-03
1.040000e+01 -2.237427e-03
1.045000e+01 -2.151356e-03
1.050000e+01 -2.055387e-03
1.055000e+01 -1.949557e-03
1.060000e+01 -1.833956e-03
1.065000e+01 -1.708735e-03
1.070000e+01 -1.574103e-03
1.075000e+01 -1.430333e-03
1.080000e+01 -1.277755e-03
1.085000e+01 -1.116751e-03
1.090000e+01 -9.477609e-04
1.095000e+01 -7.712768e-04
1.100000e+01 -5.878544e-04
1.105000e+01 -3.981108e-04
1.110000e+01 -2.027207e-04
1.115000e+01 -2.406879e-06
1.120000e+01 2.020679e-04
1.125000e+01 4.099059e-04
1.130000e+01 6.202748e-04
1.135000e+01 8.323078e-04
1.140000e+01 1.045107e-03
1.145000e+01 1.257750e-03
1.150000e+01 1.469298e-03
1.155000e+01 1.678804e-03
1.160000e+01 1.885317e-03
1.165000e+01 2.087887e-03
1.170000e+01 2.285574e-03
1.175000e+01 2.477452e-03
1.180000e+01 2.662625e-03
1.185000e+01 2.840220e-03
1.190000e+01 3.009397e-03
1.195000e+01 3.169349e-03
1.200000e+01 3.319311e-03
1.205000e+01 3.458568e-03
1.210000e+01 3.586469e-03
1.215000e+01 3.702427e-03
1.220000e+01 3.805924e-03
1.225000e+01 3.896503e-03
1.230000e+01 3.973778e-03
1.235000e+01 4.037432e-03
1.240000e+01 4.087226e-03
1.245000e+01 4.123005e-03
1.250000e+01 4.144684e-03
1.255000e+01 4.152262e-03
1.260000e+01 4.145805e-03
1.265000e+01 4.125461e-03
1.270000e+01 4.091455e-03
1.275000e+01 4.044090e-03
1.280000e+01 3.983745e-03
1.285000e+01 3.910858e-03
1.290000e+01 3.825935e-03
1.295000e+01 3.729536e-03
1.300000e+01 3.622280e-03
1.305000e+01 3.504838e-03
1.310000e+01 3.377922e-03
1.315000e+01 3.242283e-03
1.320000e+01 3.098701e-03
1.325000e+01 2.947988e-03
1.330000e+01 2.790979e-03
1.335000e+01 2.628531e-03
1.340000e+01 2.461505e-03
1.345000e+01 2.290767e-03
1.350000e+01 2.117178e-03
1.355000e+01 1.941598e-03
1.360000e+01 1.764877e-03
1.365000e+01 1.587849e-03
1.370000e+01 1.411319e-03
1.375000e+01 1.236054e-03
1.380000e+01 1.062786e-03
1.385000e+01 8.922148e-04
1.390000e+01 7.250112e-04
1.395000e+01 5.618110e-04
1.400000e+01 4.032025e-04
1.405000e+01 2.497174e-04
1.410000e+01 1.018313e-04
1.415000e+01 -4.002965e-05
1.420000e+01 -1.754812e-04
1.425000e+01 -3.041828e-04
1.430000e+01 -4.258453e-04
1.435000e+01 -5.402397e-04
1.440000e+01 -6.471958e-04
1.445000e+01 -7.465931e-04
1.450000e+01 -8.383512e-04
1.455000e+01 -9.224279e-04
1.460000e+01 -9.988254e-04
1.465000e+01 -1.067595e-03
1.470000e+01 -1.128834e-03
1.475000e+01 -1.182679e-03
1.480000e+01 -1.229290e-03
1.485000e+01 -1.268852e-03
1.490000e+01 -1.301579e-03
1.495000e+01 -1.327719e-03
1.500000e+01 -1.347548e-03
1.505000e+01 -1.361360e-03
1.510000e+01 -1.369458e-03
1.515000e+01 -1.372147e-03
1.520000e+01 -1.369748e-03
1.525000e+01 -1.362597e-03
1.530000e+01 -1.351048e-03
1.535000e+01 -1.335456e-03
1.540000e+01 -1.316162e-03
1.545000e+01 -1.293492e-03
1.550000e+01 -1.267766e-03
1.555000e+01 -1.239306e-03
1.560000e+01 -1.208440e-03
1.565000e+01 -1.175488e-03
1.570000e+01 -1.140745e-03
1.575000e+01 -1.104485e-03
1.580000e+01 -1.066964e-03
1.585000e+01 -1.028437e-03
1.590000e+01 -9.891541e-04
1.595000e+01 -9.493515e-04
1.600000e+01 -9.092371e-04
1.605000e+01 -8.689889e-04
1.610000e+01 -8.287659e-04
1.615000e+01 -7.887214e-04
1.620000e+01 -7.490059e-04
1.625000e+01 -7.097549e-04
1.630000e+01 -6.710754e-04
1.635000e+01 -6.330434e-04
1.640000e+01 -5.957158e-04
1.645000e+01 -5.591456e-04
1.650000e+01 -5.233868e-04
1.655000e+01 -4.884822e-04
1.660000e+01 -4.544495e-04
1.665000e+01 -4.212767e-04
1.670000e+01 -3.889329e-04
1.675000e+01 -3.573837e-04
1.680000e+01 -3.265960e-04
1.685000e+01 -2.965290e-04
1.690000e+01 -2.671205e-04
1.695000e+01 -2.382840e-04
1.700000e+01 -2.099200e-04
1.705000e+01 -1.819306e-04
1.710000e+01 -1.542219e-04
1.715000e+01 -1.266918e-04
1.720000e+01 -9.921475e-05
1.725000e+01 -7.163897e-05
1.730000e+01 -4.380077e-05
1.735000e+01 -1.554273e-05
1.740000e+01 1.328160e-05
1.745000e+01 4.282172e-05
1.750000e+01 7.324963e-05
1.755000e+01 1.047664e-04
1.760000e+01 1.375891e-04
1.765000e+01 1.719305e-04
1.770000e+01 2.079897e-04
1.775000e+01 2.459634e-04
1.780000e+01 2.860645e-04
1.785000e+01 3.285308e-04
1.790000e+01 3.736140e-04
1.795000e+01 4.215614e-04
1.800000e+01 4.726060e-04
1.805000e+01 5.269766e-04
1.810000e+01 5.849151e-04
1.815000e+01 6.466834e-04
1.820000e+01 7.125517e-04
1.825000e+01 7.827763e-04
1.830000e+01 8.575896e-04
1.835000e+01 9.372096e-04
1.840000e+01 1.021858e-03
1.845000e+01 1.111770e-03
1.850000e+01 1.207183e-03
1.855000e+01 1.308316e-03
1.860000e+01 1.415352e-03
1.865000e+01 1.528443e-03
1.870000e+01 1.647727e-03
1.875000e+01 1.773337e-03
1.880000e+01 1.905387e-03
1.885000e+01 2.043957e-03
1.890000e+01 2.189076e-03
1.895000e+01 2.340729e-03
1.900000e+01 2.498868e-03
1.905000e+01 2.663421e-03
1.910000e+01 2.834284e-03
1.915000e+01 3.011293e-03
1.920000e+01 3.194216e-03
1.925000e+01 3.382755e-03
1.930000e+01 3.576555e-03
1.935000e+01 3.775221e-03
1.940000e+01 3.978306e-03
1.945000e+01 4.185292e-03
1.950000e+01 4.395578e-03
1.955000e+01 4.608486e-03
1.960000e+01 4.823271e-03
1.965000e+01 5.039133e-03
1.970000e+01 5.255212e-03
1.975000e+01 5.470573e-03
1.980000e+01 5.684197e-03
1.985000e+01 5.894993e-03
1.990000e+01 6.101807e-03
1.995000e+01 6.303446e-03
2.000000e+01 6.498667e-03
2.005000e+01 6.686167e-03
2.010000e+01 6.864579e-03
2.015000e+01 7.032482e-03
2.020000e+01 7.188424e-03
2.025000e+01 7.330944e-03
2.030000e+01 7.458571e-03
2.035000e+01 7.569822e-03
2.040000e+01 7.663197e-03
2.045000e+01 7.737203e-03
2.050000e+01 7.790368e-03
2.055000e+01 7.821269e-03
2.060000e+01 7.828533e-03
2.065000e+01 7.810830e-03
2.070000e+01 7.766884e-03
2.075000e+01 7.695490e-03
2.080000e+01 7.595545e-03
2.085000e+01 7.466062e-03
2.090000e+01 7.306181e-03
2.095000e+01 7.115157e-03
2.100000e+01 6.892369e-03
2.105000e+01 6.637345e-03
2.110000e+01 6.349784e-03
2.115000e+01 6.029570e-03
2.120000e+01 5.676769e-03
2.125000e+01 5.291619e-03
2.130000e+01 4.874527e-03
2.135000e+01 4.426088e-03
2.140000e+01 3.947111e-03
2.145000e+01 3.438623e-03
2.150000e+01 2.901864e-03
2.155000e+01 2.338261e-03
2.160000e+01 1.749423e-03
2.165000e+01 1.137146e-03
2.170000e+01 5.034319e-04
2.175000e+01 -1.495222e-04
2.180000e+01 -8.193417e-04
2.185000e+01 -1.503507e-03
2.190000e+01 -2.199372e-03
2.195000e+01 -2.904158e-03
2.200000e+01 -3.614954e-03
2.205000e+01 -4.328724e-03
2.210000e+01 -5.042341e-03
2.215000e+01 -5.752631e-03
2.220000e+01 -6.456397e-03
2.225000e+01 -7.150420e-03
2.230000e+01 -7.831459e-03
2.235000e+01 -8.496265e-03
2.240000e+01 -9.141621e-03
2.245000e+01 -9.764392e-03
2.250000e+01 -1.036156e-02
2.255000e+01 -1.093020e-02
2.260000e+01 -1.146753e-02
2.265000e+01 -1.197086e-02
2.270000e+01 -1.243766e-02
2.275000e+01 -1.286560e-02
2.280000e+01 -1.325258e-02
2.285000e+01 -1.359673e-02
2.290000e+01 -1.389639e-02
2.295000e+01 -1.415010e-02
2.300000e+01 -1.435664e-02
2.305000e+01 -1.451508e-02
2.310000e+01 -1.462477e-02
2.315000e+01 -1.468537e-02
2.320000e+01 -1.469678e-02
2.325000e+01 -1.465915e-02
2.330000e+01 -1.457290e-02
2.335000e+01 -1.443870e-02
2.340000e+01 -1.425752e-02
2.345000e+01 -1.403061e-02
2.350000e+01 -1.375942e-02
2.355000e+01 -1.344563e-02
2.360000e+01 -1.309110e-02
2.365000e+01 -1.269791e-02
2.370000e+01 -1.226838e-02
2.375000e+01 -1.180498e-02
2.380000e+01 -1.131033e-02
2.385000e+01 -1.078717e-02
2.390000e+01 -1.023831e-02
2.395000e+01 -9.666680e-03
2.400000e+01 -9.075291e-03
2.405000e+01 -8.467218e-03
2.410000e+01 -7.845542e-03
2.415000e+01 -7.213324e-03
2.420000e+01 -6.573585e-03
2.425000e+01 -5.929333e-03
2.430000e+01 -5.283553e-03
2.435000e+01 -4.639185e-03
2.440000e+01 -3.999060e-03
2.445000e+01 -3.365875e-03
2.450000e+01 -2.742184e-03
2.455000e+01 -2.130419e-03
2.460000e+01 -1.532895e-03
2.465000e+01 -9.517893e-04
2.470000e+01 -3.890994e-04
2.475000e+01 1.533800e-04
2.480000e+01 6.740511e-04
2.485000e+01 1.171484e-03
2.490000e+01 1.644395e-03
2.495000e+01 2.091667e-03
2.500000e+01 2.512371e-03
2.505000e+01 2.905799e-03
2.510000e+01 3.271442e-03
2.515000e+01 3.608961e-03
2.520000e+01 3.918163e-03
2.525000e+01 4.198995e-03
2.530000e+01 4.451577e-03
2.535000e+01 4.676201e-03
2.540000e+01 4.873320e-03
2.545000e+01 5.043502e-03
2.550000e+01 5.187401e-03
2.555000e+01 5.305755e-03
2.560000e+01 5.399412e-03
2.565000e+01 5.469335e-03
2.570000e+01 5.516594e-03
2.575000e+01 5.542314e-03
2.580000e+01 5.547644e-03
2.585000e+01 5.533756e-03
2.590000e+01 5.501865e-03
2.595000e+01 5.453238e-03
2.600000e+01 5.389176e-03
2.605000e+01 5.310976e-03
2.610000e+01 5.219896e-03
2.615000e+01 5.117158e-03
2.620000e+01 5.003974e-03
2.625000e+01 4.881556e-03
2.630000e+01 4.751114e-03
2.635000e+01 4.613815e-03
2.640000e+01 4.470754e-03
2.645000e+01 4.322954e-03
2.650000e+01 4.171395e-03
2.655000e+01 4.017035e-03
2.660000e+01 3.860799e-03
2.665000e+01 3.703549e-03
2.670000e+01 3.546054e-03
2.675000e+01 3.388996e-03
2.680000e+01 3.233002e-03
2.685000e+01 3.078674e-03
2.690000e+01 2.926587e-03
2.695000e+01 2.777263e-03
2.700000e+01 2.631137e-03
2.705000e+01 2.488561e-03
2.710000e+01 2.349829e-03
2.715000e+01 2.215213e-03
2.720000e+01 2.084972e-03
2.725000e+01 1.959322e-03
2.730000e+01 1.838408e-03
2.735000e+01 1.722308e-03
2.740000e+01 1.611058e-03
2.745000e+01 1.504688e-03
2.750000e+01 1.403232e-03
2.755000e+01 1.306707e-03
2.760000e+01 1.215079e-03
2.765000e+01 1.128260e-03
2.770000e+01 1.046124e-03
2.775000e+01 9.685512e-04
2.780000e+01 8.954356e-04
2.785000e+01 8.266746e-04
2.790000e+01 7.621405e-04
2.795000e+01 7.016685e-04
2.800000e+01 6.450751e-04
2.805000e+01 5.921872e-04
2.810000e+01 5.428573e-04
2.815000e+01 4.969501e-04
2.820000e+01 4.543146e-04
2.825000e+01 4.147711e-04
2.830000e+01 3.781240e-04
2.835000e+01 3.441919e-04
2.840000e+01 3.128244e-04
2.845000e+01 2.838937e-04
2.850000e+01 2.572690e-04
2.855000e+01 2.327997e-04
2.860000e+01 2.103237e-04
2.865000e+01 1.896920e-04
2.870000e+01 1.707867e-04
2.875000e+01 1.535148e-04
2.880000e+01 1.377833e-04
2.885000e+01 1.234799e-04
2.890000e+01 1.104762e-04
2.895000e+01 9.864975e-05
2.900000e+01 8.790543e-05
2.905000e+01 7.817501e-05
2.910000e+01 6.939825e-05
2.915000e+01 6.150336e-05
2.920000e+01 5.440566e-05
2.925000e+01 4.802445e-05
2.930000e+01 4.230108e-05
2.935000e+01 3.719961e-05
2.940000e+01 3.268868e-05
2.945000e+01 2.872099e-05
