-8.000000e+00 0.000000e+00
-7.950000e+00 0.000000e+00
-7.900000e+00 0.000000e+00
-7.850000e+00 -1.097809e-15
-7.800000e+00 -1.721372e-15
-7.750000e+00 2.254881e-15
-7.700000e+00 4.013828e-15
-7.650000e+00 -1.561017e-14
-7.600000e+00 -4.870828e-14
-7.550000e+00 -3.130774e-14
-7.500000e+00 7.744448e-14
-7.450000e+00 1.573495e-13
-7.400000e+00 -1.158414e-14
-7.350000e+00 -3.706234e-13
-7.300000e+00 -3.301369e-13
-7.250000e+00 6.541113e-13
-7.200000e+00 1.847526e-12
-7.150000e+00 9.924026e-13
-7.100000e+00 -3.333025e-12
-7.050000e+00 -8.045434e-12
-7.000000e+00 -5.410511e-12
-6.950000e+00 9.689825e-12
-6.900000e+00 2.895127e-11
-6.850000e+00 2.886213e-11
-6.800000e+00 -1.142641e-11
-6.750000e+00 -7.971936e-11
-6.700000e+00 -1.167487e-10
-6.650000e+00 -4.854362e-11
-6.600000e+00 1.386695e-10
-6.550000e+00 3.361669e-10
-6.500000e+00 3.398040e-10
-6.450000e+00 -4.251405e-12
-6.400000e+00 -6.099013e-10
-6.350000e+00 -1.077875e-09
-6.300000e+00 -8.750388e-10
-6.250000e+00 2.593736e-10
-6.200000e+00 1.922000e-09
-6.150000e+00 3.014983e-09
-6.100000e+00 2.284253e-09
-6.050000e+00 -7.377294e-10
-6.000000e+00 -4.948792e-09
-5.950000e+00 -7.743500e-09
-5.900000e+00 -6.264293e-09
-5.850000e+00 5.850896e-10
-5.800000e+00 1.053361e-08
-5.750000e+00 1.808685e-08
-5.700000e+00 1.701217e-08
-5.650000e+00 4.293645e-09
-5.600000e+00 -1.666451e-08
-5.550000e+00 -3.601728e-08
-5.500000e+00 -4.162390e-08
-5.450000e+00 -2.578964e-08
-5.400000e+00 9.091625e-09
-5.350000e+00 4.977668e-08
-5.300000e+00 7.761422e-08
-5.250000e+00 7.773001e-08
-5.200000e+00 4.680054e-08
-5.150000e+00 -5.357450e-09
-5.100000e+00 -6.162378e-08
-5.050000e+00 -1.075357e-07
-5.000000e+00 -1.395110e-07
-4.950000e+00 -1.666526e-07
-4.900000e+00 -2.055701e-07
-4.850000e+00 -2.718938e-07
-4.800000e+00 -3.737024e-07
-4.750000e+00 -5.101498e-07
-4.700000e+00 -6.748388e-07
-4.650000e+00 -8.607184e-07
-4.600000e+00 -1.063195e-06
-4.550000e+00 -1.280350e-06
-4.500000e+00 -1.511667e-06
-4.450000e+00 -1.757569e-06
-4.400000e+00 -2.021057e-06
-4.350000e+00 -2.310761e-06
-4.300000e+00 -2.643376e-06
-4.250000e+00 -3.043490e-06
-4.200000e+00 -3.539979e-06
-4.150000e+00 -4.159731e-06
-4.100000e+00 -4.920765e-06
-4.050000e+00 -5.827427e-06
-4.000000e+00 -6.870176e-06
-3.950000e+00 -8.031123e-06
-3.900000e+00 -9.294477e-06
-3.850000e+00 -1.065883e-05
-3.800000e+00 -1.214711e-05
-3.750000e+00 -1.381032e-05
-3.700000e+00 -1.572312e-05
-3.650000e+00 -1.797168e-05
-3.600000e+00 -2.063663e-05
-3.550000e+00 -2.377586e-05
-3.500000e+00 -2.741372e-05
-3.450000e+00 -3.154246e-05
-3.400000e+00 -3.613918e-05
-3.350000e+00 -4.119501e-05
-3.300000e+00 -4.674582e-05
-3.250000e+00 -5.288994e-05
-3.200000e+00 -5.978182e-05
-3.150000e+00 -6.760236e-05
-3.100000e+00 -7.651863e-05
-3.050000e+00 -8.665396e-05
-3.000000e+00 -9.808351e-05
-2.950000e+00 -1.108576e-04
-2.900000e+00 -1.250393e-04
-2.850000e+00 -1.407365e-04
-2.800000e+00 -1.581142e-04
-2.750000e+00 -1.773835e-04
-2.700000e+00 -1.987773e-04
-2.650000e+00 -2.225280e-04
-2.600000e+00 -2.488550e-04
-2.550000e+00 -2.779684e-04
-2.500000e+00 -3.100816e-04
-2.450000e+00 -3.454293e-04
-2.400000e+00 -3.842796e-04
-2.350000e+00 -4.269384e-04
-2.300000e+00 -4.737418e-04
-2.250000e+00 -5.250439e-04
-2.200000e+00 -5.812038e-04
-2.150000e+00 -6.425821e-04
-2.100000e+00 -7.095484e-04
-2.050000e+00 -7.824906e-04
-2.000000e+00 -8.618243e-04
-1.950000e+00 -9.479888e-04
-1.900000e+00 -1.041438e-03
-1.850000e+00 -1.142634e-03
-1.800000e+00 -1.252043e-03
-1.750000e+00 -1.370152e-03
-1.700000e+00 -1.497468e-03
-1.650000e+00 -1.634519e-03
-1.600000e+00 -1.781835e-03
-1.550000e+00 -1.939933e-03
-1.500000e+00 -2.109312e-03
-1.450000e+00 -2.290450e-03
-1.400000e+00 -2.483821e-03
-1.350000e+00 -2.689900e-03
-1.300000e+00 -2.909153e-03
-1.250000e+00 -3.142028e-03
-1.200000e+00 -3.388934e-03
-1.150000e+00 -3.650252e-03
-1.100000e+00 -3.926325e-03
-1.050000e+00 -4.217470e-03
-1.000000e+00 -4.523960e-03
-9.499998e-01 -4.845998e-03
-9.000001e-01 -5.183717e-03
-8.499999e-01 -5.537159e-03
-7.999997e-01 -5.906286e-03
-7.500000e-01 -6.290979e-03
-6.999998e-01 -6.691044e-03
-6.500001e-01 -7.106175e-03
-5.999999e-01 -7.535958e-03
-5.499997e-01 -7.979858e-03
-5.000000e-01 -8.437228e-03
-4.499998e-01 -8.907294e-03
-4.000001e-01 -9.389163e-03
-3.499999e-01 -9.881805e-03
-2.999997e-01 -1.038404e-02
-2.500000e-01 -1.089450e-02
-1.999998e-01 -1.141169e-02
-1.500001e-01 -1.193390e-02
-9.999990e-02 -1.245930e-02
-4.999971e-02 -1.298588e-02
0.000000e+00 -1.351145e-02
5.000019e-02 -1.403369e-02
1.000004e-01 -1.455013e-02
1.500006e-01 -1.505812e-02
1.999998e-01 -1.555489e-02
2.500000e-01 -1.603750e-02
3.000002e-01 -1.650286e-02
3.500004e-01 -1.694773e-02
4.000006e-01 -1.736874e-02
4.499998e-01 -1.776239e-02
5.000000e-01 -1.812509e-02
5.500002e-01 -1.845315e-02
6.000004e-01 -1.874278e-02
6.500006e-01 -1.899018e-02
6.999998e-01 -1.919150e-02
7.500000e-01 -1.934292e-02
8.000002e-01 -1.944060e-02
8.500004e-01 -1.948073e-02
9.000006e-01 -1.945955e-02
9.499998e-01 -1.937332e-02
1.000000e+00 -1.921841e-02
1.050000e+00 -1.899132e-02
1.100000e+00 -1.868871e-02
1.150001e+00 -1.830740e-02
1.200000e+00 -1.784440e-02
1.250000e+00 -1.729697e-02
1.300000e+00 -1.666263e-02
1.350000e+00 -1.593921e-02
1.400001e+00 -1.512486e-02
1.450000e+00 -1.421811e-02
1.500000e+00 -1.321779e-02
1.550000e+00 -1.212312e-02
1.600000e+00 -1.093373e-02
1.650001e+00 -9.649689e-03
1.700000e+00 -8.271523e-03
1.750000e+00 -6.800251e-03
1.800000e+00 -5.237361e-03
1.850000e+00 -3.584845e-03
1.900001e+00 -1.845199e-03
1.950000e+00 -2.145528e-05
2.000000e+00 1.882807e-03
2.050000e+00 3.863477e-03
2.100000e+00 5.915911e-03
2.150001e+00 8.034931e-03
2.200000e+00 1.021485e-02
2.250000e+00 1.244945e-02
2.300000e+00 1.473201e-02
2.350000e+00 1.705534e-02
2.400001e+00 1.941176e-02
2.450000e+00 2.179315e-02
2.500000e+00 2.419101e-02
2.550000e+00 2.659641e-02
2.600000e+00 2.900007e-02
2.650001e+00 3.139241e-02
2.700000e+00 3.376354e-02
2.750000e+00 3.610339e-02
2.800000e+00 3.840160e-02
2.850000e+00 4.064777e-02
2.900001e+00 4.283129e-02
2.950000e+00 4.494153e-02
3.000000e+00 4.696793e-02
3.050000e+00 4.889996e-02
3.100000e+00 5.072727e-02
3.150001e+00 5.243965e-02
3.200000e+00 5.402715e-02
3.250000e+00 5.548018e-02
3.300000e+00 5.678944e-02
3.350000e+00 5.794613e-02
3.400001e+00 5.894191e-02
3.450000e+00 5.976897e-02
3.500000e+00 6.042008e-02
3.550000e+00 6.088865e-02
3.600000e+00 6.116883e-02
3.650001e+00 6.125558e-02
3.700000e+00 6.114456e-02
3.750000e+00 6.083240e-02
3.800000e+00 6.031652e-02
3.850000e+00 5.959536e-02
3.900001e+00 5.866830e-02
3.950000e+00 5.753569e-02
4.000000e+00 5.619889e-02
4.050000e+00 5.466031e-02
4.100000e+00 5.292323e-02
4.150001e+00 5.099209e-02
4.200000e+00 4.887227e-02
4.250000e+00 4.657018e-02
4.300000e+00 4.409330e-02
4.350000e+00 4.144994e-02
4.400001e+00 3.864941e-02
4.450000e+00 3.570186e-02
4.500000e+00 3.261835e-02
4.550000e+00 2.941068e-02
4.600000e+00 2.609146e-02
4.650001e+00 2.267394e-02
4.700000e+00 1.917201e-02
4.750000e+00 1.560005e-02
4.800000e+00 1.197289e-02
4.850000e+00 8.305738e-03
4.900001e+00 4.614087e-03
4.950000e+00 9.136122e-04
5.000000e+00 -2.779926e-03
5.050000e+00 -6.450764e-03
5.100000e+00 -1.008322e-02
5.150001e+00 -1.366181e-02
5.200000e+00 -1.717129e-02
5.250000e+00 -2.059680e-02
5.300000e+00 -2.392395e-02
5.350000e+00 -2.713886e-02
5.400001e+00 -3.022827e-02
5.450000e+00 -3.317966e-02
5.500000e+00 -3.598126e-02
5.550000e+00 -3.862217e-02
5.600000e+00 -4.109245e-02
5.650001e+00 -4.338311e-02
5.700000e+00 -4.548620e-02
5.750000e+00 -4.739486e-02
5.800000e+00 -4.910331e-02
5.850000e+00 -5.060693e-02
5.900001e+00 -5.190223e-02
5.950000e+00 -5.298690e-02
6.000000e+00 -5.385975e-02
6.050000e+00 -5.452073e-02
6.100000e+00 -5.497097e-02
6.150001e+00 -5.521264e-02
6.200000e+00 -5.524905e-02
6.250000e+00 -5.508456e-02
6.300000e+00 -5.472449e-02
6.350000e+00 -5.417519e-02
6.400001e+00 -5.344379e-02
6.450000e+00 -5.253834e-02
6.500000e+00 -5.146762e-02
6.550000e+00 -5.024108e-02
6.600000e+00 -4.886885e-02
6.650001e+00 -4.736151e-02
6.700000e+00 -4.573012e-02
6.750000e+00 -4.398606e-02
6.800000e+00 -4.214101e-02
6.850000e+00 -4.020684e-02
6.900001e+00 -3.819551e-02
6.950000e+00 -3.611903e-02
7.000000e+00 -3.398936e-02
7.050000e+00 -3.181833e-02
7.100000e+00 -2.961759e-02
7.150001e+00 -2.739852e-02
7.200000e+00 -2.517220e-02
7.250000e+00 -2.294932e-02
7.300000e+00 -2.074012e-02
7.350000e+00 -1.855436e-02
7.400001e+00 -1.640125e-02
7.450000e+00 -1.428941e-02
7.500000e+00 -1.222683e-02
7.550000e+00 -1.022089e-02
7.600000e+00 -8.278282e-03
7.650001e+00 -6.405046e-03
7.700000e+00 -4.606504e-03
7.750000e+00 -2.887311e-03
7.800000e+00 -1.251438e-03
7.850000e+00 2.978056e-04
7.900001e+00 1.757756e-03
7.950000e+00 3.126382e-03
8.000000e+00 4.402276e-03
8.050001e+00 5.584637e-03
8.100000e+00 6.673247e-03
8.150000e+00 7.668440e-03
8.200001e+00 8.571063e-03
8.250000e+00 9.382453e-03
8.300001e+00 1.010439e-02
8.350000e+00 1.073907e-02
8.400000e+00 1.128905e-02
8.450001e+00 1.175721e-02
8.500000e+00 1.214671e-02
8.550001e+00 1.246096e-02
8.600000e+00 1.270357e-02
8.650000e+00 1.287829e-02
8.700001e+00 1.298902e-02
8.750000e+00 1.303976e-02
8.800001e+00 1.303454e-02
8.850000e+00 1.297745e-02
8.900000e+00 1.287262e-02
8.950001e+00 1.272411e-02
9.000000e+00 1.253595e-02
9.050001e+00 1.231211e-02
9.100000e+00 1.205646e-02
9.150000e+00 1.177277e-02
9.200001e+00 1.146469e-02
9.250000e+00 1.113572e-02
9.300001e+00 1.078919e-02
9.350000e+00 1.042825e-02
9.400000e+00 1.005587e-02
9.450001e+00 9.674833e-03
9.500000e+00 9.287763e-03
9.550001e+00 8.897078e-03
9.600000e+00 8.505013e-03
9.650000e+00 8.113604e-03
9.700001e+00 7.724714e-03
9.750000e+00 7.340027e-03
9.800001e+00 6.961081e-03
9.850000e+00 6.589238e-03
9.900000e+00 6.225708e-03
9.950001e+00 5.871534e-03
1.000000e+01 5.527604e-03
1.005000e+01 5.194662e-03
1.010000e+01 4.873315e-03
1.015000e+01 4.564034e-03
1.020000e+01 4.267169e-03
1.025000e+01 3.982952e-03
1.030000e+01 3.711520e-03
1.035000e+01 3.452915e-03
1.040000e+01 3.207115e-03
1.045000e+01 2.974025e-03
1.050000e+01 2.753495e-03
1.055000e+01 2.545309e-03
1.060000e+01 2.349207e-03
1.065000e+01 2.164892e-03
1.070000e+01 1.992037e-03
1.075000e+01 1.830286e-03
1.080000e+01 1.679248e-03
1.085000e+01 1.538506e-03
1.090000e+01 1.407616e-03
1.095000e+01 1.286119e-03
1.100000e+01 1.173549e-03
1.105000e+01 1.069437e-03
1.110000e+01 9.733138e-04
1.115000e+01 8.847199e-04
1.120000e+01 8.032011e-04
1.125000e+01 7.283197e-04
1.130000e+01 6.596540e-04
1.135000e+01 5.968006e-04
1.140000e+01 5.393744e-04
1.145000e+01 4.870091e-04
1.150000e+01 4.393556e-04
1.155000e+01 3.960783e-04
1.160000e+01 3.568493e-04
1.165000e+01 3.213456e-04
1.170000e+01 2.892503e-04
1.175000e+01 2.602596e-04
1.180000e+01 2.340896e-04
1.185000e+01 2.104796e-04
1.190000e+01 1.891888e-04
1.195000e+01 1.699923e-04
1.200000e+01 1.526787e-04
1.205000e+01 1.370542e-04
1.210000e+01 1.229492e-04
1.215000e+01 1.102212e-04
1.220000e+01 9.875114e-05
1.225000e+01 8.843426e-05
1.230000e+01 7.916922e-05
1.235000e+01 7.085283e-05
1.240000e+01 6.338079e-05
1.245000e+01 5.665204e-05
1.250000e+01 5.057252e-05
1.255000e+01 4.505628e-05
1.260000e+01 4.002480e-05
1.265000e+01 3.540690e-05
1.270000e+01 3.114070e-05
1.275000e+01 2.717718e-05
1.280000e+01 2.348279e-05
1.285000e+01 2.003932e-05
1.290000e+01 1.684033e-05
1.295000e+01 1.388559e-05
1.300000e+01 1.117521e-05
1.305000e+01 8.705591e-06
1.310000e+01 6.467973e-06
1.315000e+01 4.449231e-06
1.320000e+01 2.633710e-06
1.325000e+01 1.004624e-06
1.330000e+01 -4.556037e-07
1.335000e+01 -1.765540e-06
1.340000e+01 -2.944286e-06
1.345000e+01 -4.009568e-06
1.350000e+01 -4.974699e-06
1.355000e+01 -5.845715e-06
1.360000e+01 -6.619971e-06
1.365000e+01 -7.286818e-06
1.370000e+01 -7.830072e-06
1.375000e+01 -8.231746e-06
1.380000e+01 -8.476414e-06
1.385000e+01 -8.555559e-06
1.390000e+01 -8.470635e-06
1.395000e+01 -8.233624e-06
1.400000e+01 -7.864704e-06
1.405000e+01 -7.388146e-06
1.410000e+01 -6.828708e-06
1.415000e+01 -6.209835e-06
1.420000e+01 -5.553336e-06
1.425000e+01 -4.878557e-06
1.430000e+01 -4.199763e-06
1.435000e+01 -3.522672e-06
1.440000e+01 -2.842962e-06
1.445000e+01 -2.148950e-06
1.450000e+01 -1.427857e-06
1.455000e+01 -6.722020e-07
1.460000e+01 1.172011e-07
1.465000e+01 9.325629e-07
1.470000e+01 1.762447e-06
1.475000e+01 2.593831e-06
1.480000e+01 3.411590e-06
1.485000e+01 4.196960e-06
1.490000e+01 4.927626e-06
1.495000e+01 5.580581e-06
1.500000e+01 6.136411e-06
1.505000e+01 6.582617e-06
1.510000e+01 6.914727e-06
1.515000e+01 7.135781e-06
1.520000e+01 7.255441e-06
1.525000e+01 7.289024e-06
1.530000e+01 7.255586e-06
1.535000e+01 7.174438e-06
1.540000e+01 7.060929e-06
1.545000e+01 6.923392e-06
1.550000e+01 6.762539e-06
1.555000e+01 6.572694e-06
1.560000e+01 6.343245e-06
1.565000e+01 6.059500e-06
1.570000e+01 5.704030e-06
1.575000e+01 5.260221e-06
1.580000e+01 4.718050e-06
1.585000e+01 4.079461e-06
1.590000e+01 3.359991e-06
1.595000e+01 2.585362e-06
1.600000e+01 1.785224e-06
1.605000e+01 9.877707e-07
1.610000e+01 2.172521e-07
1.615000e+01 -5.066793e-07
1.620000e+01 -1.170217e-06
1.625000e+01 -1.767937e-06
1.630000e+01 -2.304462e-06
1.635000e+01 -2.792494e-06
1.640000e+01 -3.247070e-06
1.645000e+01 -3.679464e-06
1.650000e+01 -4.094781e-06
1.655000e+01 -4.494084e-06
1.660000e+01 -4.877696e-06
1.665000e+01 -5.245301e-06
1.670000e+01 -5.591906e-06
1.675000e+01 -5.903473e-06
1.680000e+01 -6.157308e-06
1.685000e+01 -6.328637e-06
1.690000e+01 -6.399324e-06
1.695000e+01 -6.362801e-06
1.700000e+01 -6.222502e-06
1.705000e+01 -5.986790e-06
1.710000e+01 -5.665758e-06
1.715000e+01 -5.272499e-06
1.720000e+01 -4.826170e-06
1.725000e+01 -4.351740e-06
1.730000e+01 -3.874341e-06
1.735000e+01 -3.411297e-06
1.740000e+01 -2.967564e-06
1.745000e+01 -2.537486e-06
1.750000e+01 -2.110483e-06
1.755000e+01 -1.675677e-06
1.760000e+01 -1.222774e-06
1.765000e+01 -7.412483e-07
1.770000e+01 -2.218860e-07
1.775000e+01 3.380705e-07
1.780000e+01 9.296899e-07
1.785000e+01 1.532139e-06
1.790000e+01 2.119007e-06
1.795000e+01 2.667125e-06
1.800000e+01 3.161649e-06
1.805000e+01 3.594732e-06
1.810000e+01 3.960903e-06
1.815000e+01 4.254849e-06
1.820000e+01 4.474158e-06
1.825000e+01 4.623845e-06
1.830000e+01 4.717035e-06
1.835000e+01 4.769563e-06
1.840000e+01 4.792251e-06
1.845000e+01 4.787275e-06
1.850000e+01 4.751677e-06
1.855000e+01 4.684430e-06
1.860000e+01 4.590181e-06
1.865000e+01 4.475833e-06
1.870000e+01 4.342892e-06
1.875000e+01 4.182718e-06
1.880000e+01 3.979422e-06
1.885000e+01 3.718546e-06
1.890000e+01 3.394781e-06
1.895000e+01 3.013217e-06
1.900000e+01 2.584519e-06
1.905000e+01 2.119393e-06
1.910000e+01 1.627317e-06
1.915000e+01 1.119613e-06
1.920000e+01 6.123392e-07
1.925000e+01 1.246466e-07
1.930000e+01 -3.273248e-07
1.935000e+01 -7.365298e-07
1.940000e+01 -1.106362e-06
1.945000e+01 -1.446478e-06
1.950000e+01 -1.766672e-06
1.955000e+01 -2.073210e-06
1.960000e+01 -2.369099e-06
1.965000e+01 -2.656095e-06
1.970000e+01 -2.935300e-06
1.975000e+01 -3.205505e-06
1.980000e+01 -3.461221e-06
1.985000e+01 -3.692932e-06
1.990000e+01 -3.889898e-06
1.995000e+01 -4.043386e-06
2.000000e+01 -4.147849e-06
2.005000e+01 -4.199652e-06
2.010000e+01 -4.195369e-06
2.015000e+01 -4.131902e-06
2.020000e+01 -4.008731e-06
2.025000e+01 -3.830326e-06
2.030000e+01 -3.606335e-06
2.035000e+01 -3.349121e-06
2.040000e+01 -3.070372e-06
2.045000e+01 -2.779089e-06
2.050000e+01 -2.481738e-06
2.055000e+01 -2.183324e-06
2.060000e+01 -1.887578e-06
2.065000e+01 -1.595677e-06
2.070000e+01 -1.304726e-06
2.075000e+01 -1.007779e-06
2.080000e+01 -6.960547e-07
2.085000e+01 -3.623423e-07
2.090000e+01 -3.809992e-09
2.095000e+01 3.768522e-07
2.100000e+01 7.717882e-07
2.105000e+01 1.169058e-06
2.110000e+01 1.554062e-06
2.115000e+01 1.911547e-06
2.120000e+01 2.228353e-06
2.125000e+01 2.496185e-06
2.130000e+01 2.713031e-06
2.135000e+01 2.882319e-06
2.140000e+01 3.010290e-06
2.145000e+01 3.103351e-06
2.150000e+01 3.166991e-06
2.155000e+01 3.206303e-06
2.160000e+01 3.226669e-06
2.165000e+01 3.233048e-06
2.170000e+01 3.227781e-06
2.175000e+01 3.208680e-06
2.180000e+01 3.169316e-06
2.185000e+01 3.101929e-06
2.190000e+01 3.001122e-06
2.195000e+01 2.865739e-06
2.200000e+01 2.697708e-06
2.205000e+01 2.499172e-06
2.210000e+01 2.270562e-06
2.215000e+01 2.011445e-06
2.220000e+01 1.723408e-06
2.225000e+01 1.412448e-06
2.230000e+01 1.088660e-06
2.235000e+01 7.632667e-07
2.240000e+01 4.451520e-07
2.245000e+01 1.392999e-07
2.250000e+01 -1.522757e-07
2.255000e+01 -4.285593e-07
2.260000e+01 -6.885556e-07
2.265000e+01 -9.320315e-07
2.270000e+01 -1.160894e-06
2.275000e+01 -1.379483e-06
2.280000e+01 -1.593019e-06
2.285000e+01 -1.805059e-06
2.290000e+01 -2.015503e-06
2.295000e+01 -2.220120e-06
2.300000e+01 -2.411471e-06
2.305000e+01 -2.580489e-06
2.310000e+01 -2.718244e-06
2.315000e+01 -2.817775e-06
2.320000e+01 -2.875746e-06
2.325000e+01 -2.893178e-06
2.330000e+01 -2.874549e-06
2.335000e+01 -2.825492e-06
2.340000e+01 -2.750489e-06
2.345000e+01 -2.652128e-06
2.350000e+01 -2.532193e-06
2.355000e+01 -2.393223e-06
2.360000e+01 -2.238669e-06
2.365000e+01 -2.071280e-06
2.370000e+01 -1.891283e-06
2.375000e+01 -1.696483e-06
2.380000e+01 -1.484728e-06
2.385000e+01 -1.256818e-06
2.390000e+01 -1.017153e-06
2.395000e+01 -7.713187e-07
2.400000e+01 -5.226630e-07
2.405000e+01 -2.710105e-07
2.410000e+01 -1.476147e-08
2.415000e+01 2.455756e-07
2.420000e+01 5.057955e-07
2.425000e+01 7.598574e-07
2.430000e+01 1.003274e-06
2.435000e+01 1.234531e-06
2.440000e+01 1.452968e-06
2.445000e+01 1.655295e-06
2.450000e+01 1.834646e-06
2.455000e+01 1.983931e-06
2.460000e+01 2.100962e-06
2.465000e+01 2.190591e-06
2.470000e+01 2.261392e-06
2.475000e+01 2.319201e-06
2.480000e+01 2.362977e-06
2.485000e+01 2.386479e-06
2.490000e+01 2.384206e-06
2.495000e+01 2.356149e-06
2.500000e+01 2.307201e-06
2.505000e+01 2.242040e-06
2.510000e+01 2.160553e-06
2.515000e+01 2.058260e-06
2.520000e+01 1.931389e-06
2.525000e+01 1.781750e-06
2.530000e+01 1.616721e-06
2.535000e+01 1.444155e-06
2.540000e+01 1.266821e-06
2.545000e+01 1.081359e-06
2.550000e+01 8.825911e-07
2.555000e+01 6.692313e-07
2.560000e+01 4.459859e-07
2.565000e+01 2.206034e-07
2.570000e+01 -9.623154e-10
2.575000e+01 -2.167588e-07
2.580000e+01 -4.268212e-07
2.585000e+01 -6.295322e-07
2.590000e+01 -8.203075e-07
2.595000e+01 -9.940768e-07
2.600000e+01 -1.149158e-06
2.605000e+01 -1.288703e-06
2.610000e+01 -1.418216e-06
2.615000e+01 -1.541297e-06
2.620000e+01 -1.657147e-06
2.625000e+01 -1.761692e-06
2.630000e+01 -1.850749e-06
2.635000e+01 -1.922235e-06
2.640000e+01 -1.975804e-06
2.645000e+01 -2.010899e-06
2.650000e+01 -2.025665e-06
2.655000e+01 -2.017753e-06
2.660000e+01 -1.986201e-06
2.665000e+01 -1.932281e-06
2.670000e+01 -1.858640e-06
2.675000e+01 -1.767678e-06
2.680000e+01 -1.660889e-06
2.685000e+01 -1.539536e-06
2.690000e+01 -1.405672e-06
2.695000e+01 -1.262055e-06
2.700000e+01 -1.111004e-06
2.705000e+01 -9.534186e-07
2.710000e+01 -7.892387e-07
2.715000e+01 -6.191131e-07
2.720000e+01 -4.455897e-07
2.725000e+01 -2.724976e-07
2.730000e+01 -1.027001e-07
2.735000e+01 6.378292e-08
2.740000e+01 2.294913e-07
2.745000e+01 3.971964e-07
2.750000e+01 5.672208e-07
2.755000e+01 7.366823e-07
2.760000e+01 9.009821e-07
2.765000e+01 1.056015e-06
2.770000e+01 1.199096e-06
2.775000e+01 1.328112e-06
2.780000e+01 1.440064e-06
2.785000e+01 1.530885e-06
2.790000e+01 1.597152e-06
2.795000e+01 1.638540e-06
2.800000e+01 1.658815e-06
2.805000e+01 1.664256e-06
2.810000e+01 1.660335e-06
2.815000e+01 1.648963e-06
2.820000e+01 1.628316e-06
2.825000e+01 1.595140e-06
2.830000e+01 1.547747e-06
2.835000e+01 1.487288e-06
2.840000e+01 1.416439e-06
2.845000e+01 1.336663e-06
2.850000e+01 1.246542e-06
2.855000e+01 1.142759e-06
2.860000e+01 1.023125e-06
2.865000e+01 8.892359e-07
2.870000e+01 7.463526e-07
2.875000e+01 6.003042e-07
2.880000e+01 4.538022e-07
2.885000e+01 3.052596e-07
2.890000e+01 1.514473e-07
2.895000e+01 -7.987414e-09
2.900000e+01 -1.678396e-07
2.905000e+01 -3.190918e-07
2.910000e+01 -4.539028e-07
2.915000e+01 -5.703290e-07
2.920000e+01 -6.729150e-07
2.925000e+01 -7.689558e-07
2.930000e+01 -8.635295e-07
2.935000e+01 -9.570432e-07
2.940000e+01 -1.046815e-06
2.945000e+01 -1.130487e-06
