-1.200000e+01 0.000000e+00
-1.199000e+01 0.000000e+00
-1.198000e+01 0.000000e+00
-1.197000e+01 0.000000e+00
-1.196000e+01 0.000000e+00
-1.195000e+01 0.000000e+00
-1.194000e+01 0.000000e+00
-1.193000e+01 -2.052294e-39
-1.192000e+01 -4.217862e-38
-1.191000e+01 -4.391886e-37
-1.190000e+01 -3.123623e-36
-1.189000e+01 -1.716577e-35
-1.188000e+01 -7.796349e-35
-1.187000e+01 -3.052252e-34
-1.186000e+01 -1.059895e-33
-1.185000e+01 -3.332204e-33
-1.184000e+01 -9.631456e-33
-1.183000e+01 -2.589908e-32
-1.182000e+01 -6.539907e-32
-1.181000e+01 -1.562531e-31
-1.180000e+01 -3.554181e-31
-1.179000e+01 -7.736313e-31
-1.178000e+01 -1.618404e-30
-1.177000e+01 -3.265812e-30
-1.176000e+01 -6.376923e-30
-1.175000e+01 -1.208165e-29
-1.174000e+01 -2.226187e-29
-1.173000e+01 -3.997745e-29
-1.172000e+01 -7.009333e-29
-1.171000e+01 -1.201836e-28
-1.170000e+01 -2.018094e-28
-1.169000e+01 -3.322917e-28
-1.168000e+01 -5.371247e-28
-1.167000e+01 -8.532060e-28
-1.166000e+01 -1.333082e-27
-1.165000e+01 -2.050439e-27
-1.164000e+01 -3.107072e-27
-1.163000e+01 -4.641604e-27
-1.162000e+01 -6.840170e-27
-1.161000e+01 -9.949320e-27
-1.160000e+01 -1.429128e-26
-1.159000e+01 -2.028163e-26
-1.158000e+01 -2.844946e-26
-1.157000e+01 -3.945959e-26
-1.156000e+01 -5.413662e-26
-1.155000e+01 -7.348992e-26
-1.154000e+01 -9.873871e-26
-1.153000e+01 -1.313354e-25
-1.152000e+01 -1.729861e-25
-1.151000e+01 -2.256647e-25
-1.150000e+01 -2.916193e-25
-1.149000e+01 -3.733663e-25
-1.148000e+01 -4.736691e-25
-1.147000e+01 -5.954979e-25
-1.146000e+01 -7.419648e-25
-1.145000e+01 -9.162315e-25
-1.144000e+01 -1.121385e-24
-1.143000e+01 -1.360276e-24
-1.142000e+01 -1.635321e-24
-1.141000e+01 -1.948263e-24
-1.140000e+01 -2.299893e-24
-1.139000e+01 -2.689729e-24
-1.138000e+01 -3.115673e-24
-1.137000e+01 -3.573630e-24
-1.136000e+01 -4.057121e-24
-1.135000e+01 -4.556897e-24
-1.134000e+01 -5.060572e-24
-1.133000e+01 -5.552299e-24
-1.132000e+01 -6.012517e-24
-1.131000e+01 -6.417801e-24
-1.130000e+01 -6.740842e-24
-1.129000e+01 -6.950597e-24
-1.128000e+01 -7.012642e-24
-1.127000e+01 -6.889759e-24
-1.126000e+01 -6.542791e-24
-1.125000e+01 -5.931787e-24
-1.124000e+01 -5.017445e-24
-1.123000e+01 -3.762872e-24
-1.122000e+01 -2.135635e-24
-1.121000e+01 -1.100931e-25
-1.120000e+01 2.330052e-24
-1.119000e+01 5.189038e-24
-1.118000e+01 8.456256e-24
-1.117000e+01 1.210350e-23
-1.116000e+01 1.608237e-23
-1.115000e+01 2.032206e-23
-1.114000e+01 2.472752e-23
-1.113000e+01 2.917843e-23
-1.112000e+01 3.352896e-23
-1.111000e+01 3.760851e-23
-1.110000e+01 4.122384e-23
-1.109000e+01 4.416236e-23
-1.108000e+01 4.619712e-23
-1.107000e+01 4.709310e-23
-1.106000e+01 4.661529e-23
-1.105000e+01 4.453815e-23
-1.104000e+01 4.065641e-23
-1.103000e+01 3.479706e-23
-1.102000e+01 2.683208e-23
-1.101000e+01 1.669157e-23
-1.100000e+01 4.376727e-24
-1.099000e+01 -1.002800e-23
-1.098000e+01 -2.634413e-23
-1.097000e+01 -4.429056e-23
-1.096000e+01 -6.347804e-23
-1.095000e+01 -8.340721e-23
-1.094000e+01 -1.034712e-22
-1.093000e+01 -1.229634e-22
-1.092000e+01 -1.410904e-22
-1.091000e+01 -1.569919e-22
-1.090000e+01 -1.697654e-22
-1.089000e+01 -1.784978e-22
-1.088000e+01 -1.823021e-22
-1.087000e+01 -1.803592e-22
-1.086000e+01 -1.719627e-22
-1.085000e+01 -1.565663e-22
-1.084000e+01 -1.338312e-22
-1.083000e+01 -1.036722e-22
-1.082000e+01 -6.629798e-23
-1.081000e+01 -2.224670e-23
-1.080000e+01 2.759015e-23
-1.079000e+01 8.195502e-23
-1.078000e+01 1.392268e-22
-1.077000e+01 1.974407e-22
-1.076000e+01 2.543266e-22
-1.075000e+01 3.073680e-22
-1.074000e+01 3.538811e-22
-1.073000e+01 3.911143e-22
-1.072000e+01 4.163659e-22
-1.071000e+01 4.271174e-22
-1.070000e+01 4.211786e-22
-1.069000e+01 3.968401e-22
-1.068000e+01 3.530247e-22
-1.067000e+01 2.894338e-22
-1.066000e+01 2.066772e-22
-1.065000e+01 1.063803e-22
-1.064000e+01 -8.742340e-24
-1.063000e+01 -1.348542e-22
-1.062000e+01 -2.670139e-22
-1.061000e+01 -3.992497e-22
-1.060000e+01 -5.246954e-22
-1.059000e+01 -6.357931e-22
-1.058000e+01 -7.245619e-22
-1.057000e+01 -7.829306e-22
-1.056000e+01 -8.031294e-22
-1.055000e+01 -7.781299e-22
-1.054000e+01 -7.021200e-22
-1.053000e+01 -5.709979e-22
-1.052000e+01 -3.828617e-22
-1.051000e+01 -1.384721e-22
-1.050000e+01 1.583386e-22
-1.049000e+01 5.003408e-22
-1.048000e+01 8.766936e-22
-1.047000e+01 1.272871e-21
-1.046000e+01 1.670755e-21
-1.045000e+01 2.048920e-21
-1.044000e+01 2.383117e-21
-1.043000e+01 2.646988e-21
-1.042000e+01 2.812987e-21
-1.041000e+01 2.853520e-21
-1.040000e+01 2.742271e-21
-1.039000e+01 2.455698e-21
-1.038000e+01 1.974633e-21
-1.037000e+01 1.285959e-21
-1.036000e+01 3.842683e-22
-1.035000e+01 -7.265576e-22
-1.034000e+01 -2.031936e-21
-1.033000e+01 -3.505434e-21
-1.032000e+01 -5.107978e-21
-1.031000e+01 -6.787501e-21
-1.030000e+01 -8.479134e-21
-1.029000e+01 -1.010600e-20
-1.028000e+01 -1.158068e-20
-1.027000e+01 -1.280740e-20
-1.026000e+01 -1.368490e-20
-1.025000e+01 -1.411007e-20
-1.024000e+01 -1.398218e-20
-1.023000e+01 -1.320774e-20
-1.022000e+01 -1.170576e-20
-1.021000e+01 -9.413314e-21
-1.020000e+01 -6.291195e-21
-1.019000e+01 -2.329422e-21
-1.018000e+01 2.447664e-21
-1.017000e+01 7.976968e-21
-1.016000e+01 1.415320e-20
-1.015000e+01 2.082667e-20
-1.014000e+01 2.780265e-20
-1.013000e+01 3.484254e-20
-1.012000e+01 4.166700e-20
-1.011000e+01 4.796123e-20
-1.010000e+01 5.338266e-20
-1.009000e+01 5.757068e-20
-1.008000e+01 6.015875e-20
-1.007000e+01 6.078837e-20
-1.006000e+01 5.912489e-20
-1.005000e+01 5.487444e-20
-1.004000e+01 4.780184e-20
-1.003000e+01 3.774851e-20
-1.002000e+01 2.464997e-20
-1.001000e+01 8.551951e-21
-1.000000e+01 -1.037559e-20
-9.990000e+00 -3.182750e-20
-9.980000e+00 -5.535623e-20
-9.970000e+00 -8.036931e-20
-9.960000e+00 -1.061322e-19
-9.950000e+00 -1.317771e-19
-9.940001e+00 -1.563180e-19
-9.930000e+00 -1.786725e-19
-9.920000e+00 -1.976904e-19
-9.910000e+00 -2.121884e-19
-9.900000e+00 -2.209906e-19
-9.890000e+00 -2.229745e-19
-9.880000e+00 -2.171205e-19
-9.870000e+00 -2.025635e-19
-9.860001e+00 -1.786463e-19
-9.850000e+00 -1.449708e-19
-9.840000e+00 -1.014467e-19
-9.830000e+00 -4.833391e-20
-9.820000e+00 1.372237e-20
-9.809999e+00 8.366660e-20
-9.800000e+00 1.600205e-19
-9.790000e+00 2.408847e-19
-9.780000e+00 3.239563e-19
-9.770000e+00 4.065632e-19
-9.760000e+00 4.857166e-19
-9.750000e+00 5.581816e-19
-9.740000e+00 6.205644e-19
-9.730000e+00 6.694162e-19
-9.720000e+00 7.013510e-19
-9.710000e+00 7.131750e-19
-9.700000e+00 7.020233e-19
-9.690001e+00 6.655013e-19
-9.680000e+00 6.018236e-19
-9.670000e+00 5.099483e-19
-9.660000e+00 3.896980e-19
-9.650000e+00 2.418640e-19
-9.640000e+00 6.828727e-20
-9.630000e+00 -1.280896e-19
-9.620000e+00 -3.432040e-19
-9.610001e+00 -5.718925e-19
-9.600000e+00 -8.079520e-19
-9.590000e+00 -1.044243e-18
-9.580000e+00 -1.272837e-18
-9.570000e+00 -1.485210e-18
-9.559999e+00 -1.672471e-18
-9.550000e+00 -1.825636e-18
-9.540000e+00 -1.935921e-18
-9.530000e+00 -1.995071e-18
-9.520000e+00 -1.995695e-18
-9.510000e+00 -1.931605e-18
-9.500000e+00 -1.798154e-18
-9.490000e+00 -1.592542e-18
-9.480000e+00 -1.314099e-18
-9.470000e+00 -9.645167e-19
-9.460000e+00 -5.480204e-19
-9.450000e+00 -7.147225e-20
-9.440001e+00 4.556072e-19
-9.430000e+00 1.021106e-18
-9.420000e+00 1.610486e-18
-9.410000e+00 2.207039e-18
-9.400000e+00 2.792247e-18
-9.390000e+00 3.346236e-18
-9.380000e+00 3.848314e-18
-9.370000e+00 4.277585e-18
-9.360001e+00 4.613623e-18
-9.350000e+00 4.837199e-18
-9.340000e+00 4.931013e-18
-9.330000e+00 4.880441e-18
-9.320000e+00 4.674243e-18
-9.309999e+00 4.305225e-18
-9.300000e+00 3.770819e-18
-9.290000e+00 3.073550e-18
-9.280000e+00 2.221381e-18
-9.270000e+00 1.227894e-18
-9.260000e+00 1.123066e-19
-9.250000e+00 -1.100705e-18
-9.240000e+00 -2.381373e-18
-9.230000e+00 -3.695406e-18
-9.220000e+00 -5.004752e-18
-9.210000e+00 -6.268541e-18
-9.200000e+00 -7.444194e-18
-9.190001e+00 -8.488671e-18
-9.180000e+00 -9.359831e-18
-9.170000e+00 -1.001785e-17
-9.160000e+00 -1.042668e-17
-9.150000e+00 -1.055548e-17
-9.140000e+00 -1.037996e-17
-9.130000e+00 -9.883646e-18
-9.120000e+00 -9.058932e-18
-9.110001e+00 -7.907929e-18
-9.100000e+00 -6.443052e-18
-9.090000e+00 -4.687313e-18
-9.080000e+00 -2.674272e-18
-9.070000e+00 -4.476502e-19
-9.060000e+00 1.939417e-18
-9.050000e+00 4.425486e-18
-9.040000e+00 6.942248e-18
-9.030000e+00 9.416283e-18
-9.020000e+00 1.177109e-17
-9.010000e+00 1.392933e-17
-9.000000e+00 1.581525e-17
-8.990000e+00 1.735715e-17
-8.980000e+00 1.848989e-17
-8.970000e+00 1.915732e-17
-8.960000e+00 1.931453e-17
-8.950000e+00 1.892986e-17
-8.940001e+00 1.798657e-17
-8.930000e+00 1.648414e-17
-8.920000e+00 1.443903e-17
-8.910000e+00 1.188502e-17
-8.900000e+00 8.872893e-18
-8.890000e+00 5.469640e-18
-8.880000e+00 1.757003e-18
-8.870000e+00 -2.170468e-18
-8.860001e+00 -6.207888e-18
-8.850000e+00 -1.024296e-17
-8.840000e+00 -1.415927e-17
-8.830000e+00 -1.783981e-17
-8.820000e+00 -2.117072e-17
-8.810000e+00 -2.404500e-17
-8.800000e+00 -2.636615e-17
-8.790000e+00 -2.805161e-17
-8.780000e+00 -2.903576e-17
-8.770000e+00 -2.927253e-17
-8.760000e+00 -2.873739e-17
-8.750000e+00 -2.742857e-17
-8.740000e+00 -2.536769e-17
-8.730000e+00 -2.259942e-17
-8.720000e+00 -1.919045e-17
-8.710000e+00 -1.522759e-17
-8.700000e+00 -1.081513e-17
-8.690001e+00 -6.071497e-18
-8.680000e+00 -1.125383e-18
-8.670000e+00 3.888637e-18
-8.660000e+00 8.834730e-18
-8.650000e+00 1.358056e-17
-8.640000e+00 1.800199e-17
-8.630000e+00 2.198746e-17
-8.620000e+00 2.544203e-17
-8.610001e+00 2.829064e-17
-8.600000e+00 3.048073e-17
-8.590000e+00 3.198381e-17
-8.580000e+00 3.279612e-17
-8.570000e+00 3.293805e-17
-8.560000e+00 3.245263e-17
-8.550000e+00 3.140276e-17
-8.540000e+00 2.986758e-17
-8.530000e+00 2.793789e-17
-8.520000e+00 2.571088e-17
-8.510000e+00 2.328437e-17
-8.500000e+00 2.075085e-17
-8.490000e+00 1.819153e-17
-8.480000e+00 1.567074e-17
-8.470000e+00 1.323104e-17
-8.460000e+00 1.088917e-17
-8.450000e+00 8.633338e-18
-8.440001e+00 6.421910e-18
-8.430000e+00 4.183796e-18
-8.420000e+00 1.820628e-18
-8.410000e+00 -7.891809e-19
-8.400000e+00 -3.784529e-18
-8.390000e+00 -7.313949e-18
-8.380000e+00 -1.152637e-17
-8.370000e+00 -1.656056e-17
-8.360001e+00 -2.253370e-17
-8.350000e+00 -2.952940e-17
-8.340000e+00 -3.758574e-17
-8.330000e+00 -4.668399e-17
-8.320000e+00 -5.673836e-17
-8.310000e+00 -6.758766e-17
-8.300000e+00 -7.898929e-17
-8.290000e+00 -9.061617e-17
-8.280000e+00 -1.020571e-16
-8.270000e+00 -1.128212e-16
-8.260000e+00 -1.223459e-16
-8.250000e+00 -1.300100e-16
-8.240000e+00 -1.351505e-16
-8.230000e+00 -1.370840e-16
-8.220000e+00 -1.351313e-16
-8.210000e+00 -1.286458e-16
-8.200000e+00 -1.170444e-16
-8.190001e+00 -9.983956e-17
-8.180000e+00 -7.667252e-17
-8.170000e+00 -4.734558e-17
-8.160000e+00 -1.185255e-17
-8.150000e+00 2.959401e-17
-8.140000e+00 7.654029e-17
-8.130000e+00 1.282746e-16
-8.120000e+00 1.838182e-16
-8.110001e+00 2.419244e-16
-8.100000e+00 3.010873e-16
-8.090000e+00 3.595599e-16
-8.080000e+00 4.153846e-16
-8.070000e+00 4.664317e-16
-8.060000e+00 5.104511e-16
-8.050000e+00 5.451323e-16
-8.040000e+00 5.681732e-16
-8.030000e+00 5.773575e-16
-8.020000e+00 5.706362e-16
-8.010000e+00 5.462141e-16
-8.000000e+00 5.026359e-16
-7.990000e+00 4.388719e-16
-7.980000e+00 3.543975e-16
-7.970000e+00 2.492663e-16
-7.960000e+00 1.241716e-16
-7.950000e+00 -1.950626e-17
-7.940000e+00 -1.796686e-16
-7.930000e+00 -3.534871e-16
-7.920000e+00 -5.374139e-16
-7.910000e+00 -7.272143e-16
-7.900000e+00 -9.180254e-16
-7.890000e+00 -1.104438e-15
-7.880000e+00 -1.280604e-15
-7.870000e+00 -1.440366e-15
-7.860000e+00 -1.577413e-15
-7.850000e+00 -1.685446e-15
-7.840000e+00 -1.758370e-15
-7.830000e+00 -1.790490e-15
-7.820000e+00 -1.776714e-15
-7.810000e+00 -1.712759e-15
-7.800000e+00 -1.595350e-15
-7.790000e+00 -1.422409e-15
-7.780000e+00 -1.193221e-15
-7.770000e+00 -9.085846e-16
-7.760000e+00 -5.709212e-16
-7.750000e+00 -1.843543e-16
-7.740000e+00 2.452554e-16
-7.730000e+00 7.103214e-16
-7.720000e+00 1.201592e-15
-7.710000e+00 1.708263e-15
-7.700000e+00 2.218145e-15
-7.690000e+00 2.717879e-15
-7.680000e+00 3.193208e-15
-7.670000e+00 3.629288e-15
-7.660000e+00 4.011048e-15
-7.650000e+00 4.323580e-15
-7.640000e+00 4.552555e-15
-7.630000e+00 4.684658e-15
-7.620000e+00 4.708029e-15
-7.610000e+00 4.612695e-15
-7.600000e+00 4.390990e-15
-7.590000e+00 4.037938e-15
-7.580000e+00 3.551600e-15
-7.570000e+00 2.933357e-15
-7.560000e+00 2.188134e-15
-7.550000e+00 1.324540e-15
-7.540000e+00 3.549243e-16
-7.530000e+00 -7.046606e-16
-7.520000e+00 -1.834602e-15
-7.510000e+00 -3.011968e-15
-7.500000e+00 -4.210854e-15
-7.490000e+00 -5.402833e-15
-7.480000e+00 -6.557499e-15
-7.470000e+00 -7.643106e-15
-7.460000e+00 -8.627276e-15
-7.450000e+00 -9.477785e-15
-7.440000e+00 -1.016339e-14
-7.430000e+00 -1.065467e-14
-7.420000e+00 -1.092495e-14
-7.410000e+00 -1.095110e-14
-7.400000e+00 -1.071440e-14
-7.390000e+00 -1.020129e-14
-7.380000e+00 -9.404090e-15
-7.370000e+00 -8.321574e-15
-7.360000e+00 -6.959435e-15
-7.350000e+00 -5.330616e-15
-7.340000e+00 -3.455474e-15
-7.330000e+00 -1.361769e-15
-7.320000e+00 9.155247e-16
-7.310000e+00 3.334607e-15
-7.300000e+00 5.847423e-15
-7.290000e+00 8.400438e-15
-7.280000e+00 1.093558e-14
-7.270000e+00 1.339135e-14
-7.260000e+00 1.570412e-14
-7.250000e+00 1.780952e-14
-7.240000e+00 1.964395e-14
-7.230000e+00 2.114613e-14
-7.220000e+00 2.225879e-14
-7.210000e+00 2.293022e-14
-7.200000e+00 2.311590e-14
-7.190000e+00 2.277997e-14
-7.180000e+00 2.189665e-14
-7.170000e+00 2.045145e-14
-7.160000e+00 1.844221e-14
-7.150000e+00 1.587988e-14
-7.140000e+00 1.278905e-14
-7.130000e+00 9.208201e-15
-7.120000e+00 5.189590e-15
-7.110000e+00 7.988623e-16
-7.100000e+00 -3.885726e-15
-7.090000e+00 -8.774406e-15
-7.080000e+00 -1.376733e-14
-7.070000e+00 -1.875634e-14
-7.060000e+00 -2.362702e-14
-7.050000e+00 -2.826099e-14
-7.040000e+00 -3.253848e-14
-7.030000e+00 -3.634102e-14
-7.020000e+00 -3.955432e-14
-7.010000e+00 -4.207108e-14
-7.000000e+00 -4.379396e-14
-6.990000e+00 -4.463835e-14
-6.980000e+00 -4.453506e-14
-6.970000e+00 -4.343275e-14
-6.960000e+00 -4.130009e-14
-6.950000e+00 -3.812761e-14
-6.940000e+00 -3.392905e-14
-6.930000e+00 -2.874233e-14
-6.920000e+00 -2.262992e-14
-6.910000e+00 -1.567873e-14
-6.900000e+00 -7.999396e-15
-6.890000e+00 2.750676e-16
-6.880000e+00 8.991131e-15
-6.870000e+00 1.797724e-14
-6.860000e+00 2.704686e-14
-6.850000e+00 3.600195e-14
-6.840000e+00 4.463701e-14
-6.830000e+00 5.274337e-14
-6.820000e+00 6.011388e-14
-6.810000e+00 6.654769e-14
-6.800000e+00 7.185521e-14
-6.790000e+00 7.586305e-14
-6.780000e+00 7.841868e-14
-6.770000e+00 7.939505e-14
-6.760000e+00 7.869465e-14
-6.750000e+00 7.625316e-14
-6.740000e+00 7.204249e-14
-6.730000e+00 6.607310e-14
-6.720000e+00 5.839552e-14
-6.710000e+00 4.910102e-14
-6.700000e+00 3.832138e-14
-6.690000e+00 2.622761e-14
-6.680000e+00 1.302783e-14
-6.670000e+00 -1.035959e-15
-6.660000e+00 -1.569191e-14
-6.650000e+00 -3.064334e-14
-6.640000e+00 -4.557449e-14
-6.630000e+00 -6.015698e-14
-6.620000e+00 -7.405687e-14
-6.610000e+00 -8.694211e-14
-6.600000e+00 -9.849024e-14
-6.590000e+00 -1.083963e-13
-6.580000e+00 -1.163803e-13
-6.570000e+00 -1.221952e-13
-6.560000e+00 -1.256332e-13
-6.550000e+00 -1.265324e-13
-6.540000e+00 -1.247824e-13
-6.530000e+00 -1.203285e-13
-6.520000e+00 -1.131750e-13
-6.510000e+00 -1.033872e-13
-6.500000e+00 -9.109224e-14
-6.490000e+00 -7.647819e-14
-6.480000e+00 -5.979159e-14
-6.470000e+00 -4.133381e-14
-6.460000e+00 -2.145581e-14
-6.450000e+00 -5.514965e-16
-6.440000e+00 2.095007e-14
-6.430000e+00 4.259370e-14
-6.420000e+00 6.390793e-14
-6.410000e+00 8.441566e-14
-6.400000e+00 1.036452e-13
-6.390000e+00 1.211416e-13
-6.380000e+00 1.364781e-13
-6.370000e+00 1.492664e-13
-6.360000e+00 1.591680e-13
-6.350000e+00 1.659026e-13
-6.340000e+00 1.692571e-13
-6.330000e+00 1.690920e-13
-6.320000e+00 1.653469e-13
-6.310000e+00 1.580438e-13
-6.300000e+00 1.472886e-13
-6.290000e+00 1.332707e-13
-6.280000e+00 1.162605e-13
-6.270000e+00 9.660424e-14
-6.260000e+00 7.471767e-14
-6.250000e+00 5.107733e-14
-6.240000e+00 2.621016e-14
-6.230000e+00 6.815206e-16
-6.220000e+00 -2.491790e-14
-6.210000e+00 -4.998633e-14
-6.200000e+00 -7.392574e-14
-6.190000e+00 -9.615691e-14
-6.180000e+00 -1.161345e-13
-6.170000e+00 -1.333614e-13
-6.160000e+00 -1.474028e-13
-6.150000e+00 -1.578983e-13
-6.140000e+00 -1.645729e-13
-6.130000e+00 -1.672459e-13
-6.120000e+00 -1.658379e-13
-6.110000e+00 -1.603751e-13
-6.100000e+00 -1.509912e-13
-6.090000e+00 -1.379263e-13
-6.080000e+00 -1.215239e-13
-6.070000e+00 -1.022243e-13
-6.060000e+00 -8.055588e-14
-6.050000e+00 -5.712395e-14
-6.040000e+00 -3.259745e-14
-6.030000e+00 -7.693654e-15
-6.020000e+00 1.683853e-14
-6.010000e+00 4.023641e-14
-6.000000e+00 6.174198e-14
-5.990000e+00 8.062068e-14
-5.980000e+00 9.617980e-14
-5.970000e+00 1.077861e-13
-5.960000e+00 1.148822e-13
-5.950000e+00 1.170015e-13
-5.940000e+00 1.137806e-13
-5.930000e+00 1.049697e-13
-5.920000e+00 9.043983e-14
-5.910000e+00 7.018742e-14
-5.900000e+00 4.433553e-14
-5.890000e+00 1.313198e-14
-5.880000e+00 -2.305592e-14
-5.870000e+00 -6.374960e-14
-5.860000e+00 -1.083705e-13
-5.850000e+00 -1.562539e-13
-5.840000e+00 -2.066655e-13
-5.830000e+00 -2.588193e-13
-5.820000e+00 -3.118975e-13
-5.810000e+00 -3.650711e-13
-5.800000e+00 -4.175212e-13
-5.790000e+00 -4.684600e-13
-5.780000e+00 -5.171510e-13
-5.770000e+00 -5.629282e-13
-5.760000e+00 -6.052134e-13
-5.750000e+00 -6.435317e-13
-5.740000e+00 -6.775234e-13
-5.730000e+00 -7.069539e-13
-5.720000e+00 -7.317199e-13
-5.710000e+00 -7.518518e-13
-5.700000e+00 -7.675133e-13
-5.690000e+00 -7.789966e-13
-5.680000e+00 -7.867148e-13
-5.670000e+00 -7.911906e-13
-5.660000e+00 -7.930421e-13
-5.650000e+00 -7.929662e-13
-5.640000e+00 -7.917194e-13
-5.630000e+00 -7.900973e-13
-5.620000e+00 -7.889129e-13
-5.610000e+00 -7.889742e-13
-5.600000e+00 -7.910621e-13
-5.590000e+00 -7.959088e-13
-5.580000e+00 -8.041779e-13
-5.570000e+00 -8.164452e-13
-5.560000e+00 -8.331838e-13
-5.550000e+00 -8.547500e-13
-5.540000e+00 -8.813738e-13
-5.530000e+00 -9.131520e-13
-5.520000e+00 -9.500457e-13
-5.510000e+00 -9.918804e-13
-5.500000e+00 -1.038352e-12
-5.490000e+00 -1.089033e-12
-5.480000e+00 -1.143386e-12
-5.470000e+00 -1.200779e-12
-5.460000e+00 -1.260500e-12
-5.450000e+00 -1.321777e-12
-5.440000e+00 -1.383805e-12
-5.430000e+00 -1.445761e-12
-5.420000e+00 -1.506830e-12
-5.410000e+00 -1.566230e-12
-5.400000e+00 -1.623231e-12
-5.390000e+00 -1.677178e-12
-5.380000e+00 -1.727507e-12
-5.370000e+00 -1.773764e-12
-5.360000e+00 -1.815618e-12
-5.350000e+00 -1.852871e-12
-5.340000e+00 -1.885462e-12
-5.330000e+00 -1.913476e-12
-5.320000e+00 -1.937136e-12
-5.310000e+00 -1.956803e-12
-5.300000e+00 -1.972966e-12
-5.290000e+00 -1.986232e-12
-5.280000e+00 -1.997308e-12
-5.270000e+00 -2.006986e-12
-5.260000e+00 -2.016121e-12
-5.250000e+00 -2.025613e-12
-5.240000e+00 -2.036379e-12
-5.230000e+00 -2.049335e-12
-5.220000e+00 -2.065371e-12
-5.210000e+00 -2.085327e-12
-5.200000e+00 -2.109972e-12
-5.190000e+00 -2.139989e-12
-5.180000e+00 -2.175952e-12
-5.170000e+00 -2.218316e-12
-5.160000e+00 -2.267402e-12
-5.150000e+00 -2.323395e-12
-5.140000e+00 -2.386332e-12
-5.130000e+00 -2.456107e-12
-5.120000e+00 -2.532474e-12
-5.110000e+00 -2.615048e-12
-5.100000e+00 -2.703322e-12
-5.090000e+00 -2.796675e-12
-5.080000e+00 -2.894386e-12
-5.070000e+00 -2.995658e-12
-5.060000e+00 -3.099633e-12
-5.050000e+00 -3.205412e-12
-5.040000e+00 -3.312081e-12
-5.030000e+00 -3.418729e-12
-5.020000e+00 -3.524472e-12
-5.010000e+00 -3.628471e-12
-5.000000e+00 -3.729956e-12
-4.990000e+00 -3.828239e-12
-4.980000e+00 -3.922733e-12
-4.970000e+00 -4.012965e-12
-4.960000e+00 -4.098586e-12
-4.950000e+00 -4.179377e-12
-4.940000e+00 -4.255256e-12
-4.930000e+00 -4.326280e-12
-4.920000e+00 -4.392641e-12
-4.910000e+00 -4.454665e-12
-4.900000e+00 -4.512800e-12
-4.890000e+00 -4.567611e-12
-4.880000e+00 -4.619767e-12
-4.870000e+00 -4.670025e-12
-4.860000e+00 -4.719216e-12
-4.850000e+00 -4.768228e-12
-4.840000e+00 -4.817988e-12
-4.830000e+00 -4.869444e-12
-4.820000e+00 -4.923549e-12
-4.810000e+00 -4.981236e-12
-4.800000e+00 -5.043411e-12
-4.790000e+00 -5.110928e-12
-4.780000e+00 -5.184581e-12
-4.770000e+00 -5.265083e-12
-4.760000e+00 -5.353062e-12
-4.750000e+00 -5.449047e-12
-4.740000e+00 -5.553460e-12
-4.730000e+00 -5.666612e-12
-4.720000e+00 -5.788700e-12
-4.710000e+00 -5.919805e-12
-4.700000e+00 -6.059895e-12
-4.690000e+00 -6.208824e-12
-4.680000e+00 -6.366341e-12
-4.670000e+00 -6.532093e-12
-4.660000e+00 -6.705642e-12
-4.650000e+00 -6.886462e-12
-4.640000e+00 -7.073959e-12
-4.630000e+00 -7.267485e-12
-4.620000e+00 -7.466342e-12
-4.610000e+00 -7.669802e-12
-4.600000e+00 -7.877119e-12
-4.590000e+00 -8.087541e-12
-4.580000e+00 -8.300328e-12
-4.570000e+00 -8.514760e-12
-4.560000e+00 -8.730150e-12
-4.550000e+00 -8.945857e-12
-4.540000e+00 -9.161296e-12
-4.530000e+00 -9.375947e-12
-4.520000e+00 -9.589361e-12
-4.510000e+00 -9.801168e-12
-4.500000e+00 -1.001108e-11
-4.490000e+00 -1.021890e-11
-4.480000e+00 -1.042451e-11
-4.470000e+00 -1.062789e-11
-4.460000e+00 -1.082910e-11
-4.450000e+00 -1.102829e-11
-4.440000e+00 -1.122566e-11
-4.430000e+00 -1.142152e-11
-4.420000e+00 -1.161623e-11
-4.410000e+00 -1.181021e-11
-4.400000e+00 -1.200392e-11
-4.390000e+00 -1.219787e-11
-4.380000e+00 -1.239261e-11
-4.370000e+00 -1.258870e-11
-4.360000e+00 -1.278672e-11
-4.350000e+00 -1.298726e-11
-4.340000e+00 -1.319091e-11
-4.330000e+00 -1.339826e-11
-4.320000e+00 -1.360986e-11
-4.310000e+00 -1.382628e-11
-4.300000e+00 -1.404805e-11
-4.290000e+00 -1.427569e-11
-4.280000e+00 -1.450967e-11
-4.270000e+00 -1.475048e-11
-4.260000e+00 -1.499857e-11
-4.250000e+00 -1.525435e-11
-4.240000e+00 -1.551824e-11
-4.230000e+00 -1.579064e-11
-4.220000e+00 -1.607193e-11
-4.210000e+00 -1.636249e-11
-4.200000e+00 -1.666270e-11
-4.190000e+00 -1.697291e-11
-4.180000e+00 -1.729348e-11
-4.170000e+00 -1.762477e-11
-4.160000e+00 -1.796712e-11
-4.150000e+00 -1.832087e-11
-4.140000e+00 -1.868632e-11
-4.130000e+00 -1.906376e-11
-4.120000e+00 -1.945346e-11
-4.110000e+00 -1.985562e-11
-4.100000e+00 -2.027039e-11
-4.090000e+00 -2.069788e-11
-4.080000e+00 -2.113809e-11
-4.070000e+00 -2.159095e-11
-4.060000e+00 -2.205628e-11
-4.050000e+00 -2.253379e-11
-4.040000e+00 -2.302307e-11
-4.030000e+00 -2.352359e-11
-4.020000e+00 -2.403470e-11
-4.010000e+00 -2.455559e-11
-4.000000e+00 -2.508535e-11
-3.990000e+00 -2.562296e-11
-3.980000e+00 -2.616726e-11
-3.970000e+00 -2.671703e-11
-3.960000e+00 -2.727099e-11
-3.950000e+00 -2.782777e-11
-3.940001e+00 -2.838604e-11
-3.930000e+00 -2.894446e-11
-3.920000e+00 -2.950174e-11
-3.910000e+00 -3.005668e-11
-3.900001e+00 -3.060822e-11
-3.890000e+00 -3.115546e-11
-3.880000e+00 -3.169768e-11
-3.870000e+00 -3.223444e-11
-3.860001e+00 -3.276554e-11
-3.850000e+00 -3.329107e-11
-3.840000e+00 -3.381146e-11
-3.830000e+00 -3.432745e-11
-3.820001e+00 -3.484016e-11
-3.810000e+00 -3.535100e-11
-3.800000e+00 -3.586174e-11
-3.790000e+00 -3.637448e-11
-3.780000e+00 -3.689157e-11
-3.770000e+00 -3.741565e-11
-3.760000e+00 -3.794954e-11
-3.750000e+00 -3.849623e-11
-3.740000e+00 -3.905880e-11
-3.730000e+00 -3.964037e-11
-3.720000e+00 -4.024403e-11
-3.710000e+00 -4.087276e-11
-3.700000e+00 -4.152936e-11
-3.690001e+00 -4.221640e-11
-3.680000e+00 -4.293612e-11
-3.670000e+00 -4.369041e-11
-3.660000e+00 -4.448069e-11
-3.650001e+00 -4.530795e-11
-3.640000e+00 -4.617264e-11
-3.630000e+00 -4.707469e-11
-3.620000e+00 -4.801348e-11
-3.610001e+00 -4.898783e-11
-3.600000e+00 -4.999607e-11
-3.590000e+00 -5.103597e-11
-3.580000e+00 -5.210491e-11
-3.570001e+00 -5.319983e-11
-3.560000e+00 -5.431736e-11
-3.550000e+00 -5.545386e-11
-3.540000e+00 -5.660555e-11
-3.530000e+00 -5.776858e-11
-3.520000e+00 -5.893911e-11
-3.510000e+00 -6.011346e-11
-3.500000e+00 -6.128815e-11
-3.490000e+00 -6.246005e-11
-3.480000e+00 -6.362644e-11
-3.470000e+00 -6.478510e-11
-3.460000e+00 -6.593438e-11
-3.450000e+00 -6.707324e-11
-3.440001e+00 -6.820131e-11
-3.430000e+00 -6.931893e-11
-3.420000e+00 -7.042710e-11
-3.410000e+00 -7.152754e-11
-3.400001e+00 -7.262262e-11
-3.390000e+00 -7.371529e-11
-3.380000e+00 -7.480911e-11
-3.370000e+00 -7.590808e-11
-3.360001e+00 -7.701655e-11
-3.350000e+00 -7.813920e-11
-3.340000e+00 -7.928085e-11
-3.330000e+00 -8.044639e-11
-3.320001e+00 -8.164062e-11
-3.310000e+00 -8.286817e-11
-3.300000e+00 -8.413339e-11
-3.290000e+00 -8.544022e-11
-3.280000e+00 -8.679209e-11
-3.270000e+00 -8.819186e-11
-3.260000e+00 -8.964172e-11
-3.250000e+00 -9.114321e-11
-3.240000e+00 -9.269709e-11
-3.230000e+00 -9.430340e-11
-3.220000e+00 -9.596144e-11
-3.210000e+00 -9.766980e-11
-3.200000e+00 -9.942639e-11
-3.190001e+00 -1.012286e-10
-3.180000e+00 -1.030731e-10
-3.170000e+00 -1.049564e-10
-3.160000e+00 -1.068746e-10
-3.150001e+00 -1.088235e-10
-3.140000e+00 -1.107989e-10
-3.130000e+00 -1.127967e-10
-3.120000e+00 -1.148127e-10
-3.110001e+00 -1.168434e-10
-3.100000e+00 -1.188854e-10
-3.090000e+00 -1.209357e-10
-3.080000e+00 -1.229921e-10
-3.070001e+00 -1.250530e-10
-3.060000e+00 -1.271173e-10
-3.050000e+00 -1.291848e-10
-3.040000e+00 -1.312559e-10
-3.030000e+00 -1.333318e-10
-3.020000e+00 -1.354144e-10
-3.010000e+00 -1.375062e-10
-3.000000e+00 -1.396103e-10
-2.990000e+00 -1.417303e-10
-2.980000e+00 -1.438701e-10
-2.970000e+00 -1.460343e-10
-2.960000e+00 -1.482272e-10
-2.950000e+00 -1.504536e-10
-2.940001e+00 -1.527180e-10
-2.930000e+00 -1.550250e-10
-2.920000e+00 -1.573788e-10
-2.910000e+00 -1.597834e-10
-2.900001e+00 -1.622424e-10
-2.890000e+00 -1.647589e-10
-2.880000e+00 -1.673353e-10
-2.870000e+00 -1.699737e-10
-2.860001e+00 -1.726754e-10
-2.850000e+00 -1.754412e-10
-2.840000e+00 -1.782712e-10
-2.830000e+00 -1.811650e-10
-2.820001e+00 -1.841217e-10
-2.810000e+00 -1.871398e-10
-2.800000e+00 -1.902175e-10
-2.790000e+00 -1.933527e-10
-2.780000e+00 -1.965427e-10
-2.770000e+00 -1.997852e-10
-2.760000e+00 -2.030772e-10
-2.750000e+00 -2.064161e-10
-2.740000e+00 -2.097993e-10
-2.730000e+00 -2.132243e-10
-2.720000e+00 -2.166888e-10
-2.710000e+00 -2.201907e-10
-2.700000e+00 -2.237285e-10
-2.690001e+00 -2.273009e-10
-2.680000e+00 -2.309069e-10
-2.670000e+00 -2.345461e-10
-2.660000e+00 -2.382183e-10
-2.650001e+00 -2.419240e-10
-2.640000e+00 -2.456637e-10
-2.630000e+00 -2.494386e-10
-2.620000e+00 -2.532499e-10
-2.610001e+00 -2.570993e-10
-2.600000e+00 -2.609888e-10
-2.590000e+00 -2.649202e-10
-2.580000e+00 -2.688958e-10
-2.570001e+00 -2.729178e-10
-2.560000e+00 -2.769885e-10
-2.550000e+00 -2.811102e-10
-2.540000e+00 -2.852852e-10
-2.530001e+00 -2.895157e-10
-2.520000e+00 -2.938038e-10
-2.510000e+00 -2.981514e-10
-2.500000e+00 -3.025605e-10
-2.490000e+00 -3.070329e-10
-2.480000e+00 -3.115702e-10
-2.470000e+00 -3.161740e-10
-2.460000e+00 -3.208458e-10
-2.450000e+00 -3.255870e-10
-2.440001e+00 -3.303988e-10
-2.430000e+00 -3.352827e-10
-2.420000e+00 -3.402399e-10
-2.410000e+00 -3.452716e-10
-2.400001e+00 -3.503789e-10
-2.390000e+00 -3.555632e-10
-2.380000e+00 -3.608256e-10
-2.370000e+00 -3.661674e-10
-2.360001e+00 -3.715897e-10
-2.350000e+00 -3.770937e-10
-2.340000e+00 -3.826806e-10
-2.330000e+00 -3.883514e-10
-2.320001e+00 -3.941070e-10
-2.310000e+00 -3.999485e-10
-2.300000e+00 -4.058766e-10
-2.290000e+00 -4.118919e-10
-2.280001e+00 -4.179949e-10
-2.270000e+00 -4.241859e-10
-2.260000e+00 -4.304651e-10
-2.250000e+00 -4.368324e-10
-2.240000e+00 -4.432876e-10
-2.230000e+00 -4.498301e-10
-2.220000e+00 -4.564596e-10
-2.210000e+00 -4.631752e-10
-2.200000e+00 -4.699762e-10
-2.190001e+00 -4.768616e-10
-2.180000e+00 -4.838304e-10
-2.170000e+00 -4.908818e-10
-2.160000e+00 -4.980150e-10
-2.150001e+00 -5.052290e-10
-2.140000e+00 -5.125234e-10
-2.130000e+00 -5.198976e-10
-2.120000e+00 -5.273514e-10
-2.110001e+00 -5.348851e-10
-2.100000e+00 -5.424988e-10
-2.090000e+00 -5.501934e-10
-2.080000e+00 -5.579698e-10
-2.070001e+00 -5.658294e-10
-2.060000e+00 -5.737739e-10
-2.050000e+00 -5.818054e-10
-2.040000e+00 -5.899261e-10
-2.030001e+00 -5.981386e-10
-2.020000e+00 -6.064458e-10
-2.010000e+00 -6.148506e-10
-2.000000e+00 -6.233561e-10
-1.990000e+00 -6.319655e-10
-1.980000e+00 -6.406820e-10
-1.970000e+00 -6.495087e-10
-1.960000e+00 -6.584485e-10
-1.950000e+00 -6.675044e-10
-1.940001e+00 -6.766792e-10
-1.930000e+00 -6.859750e-10
-1.920000e+00 -6.953942e-10
-1.910000e+00 -7.049386e-10
-1.900001e+00 -7.146096e-10
-1.890000e+00 -7.244087e-10
-1.880000e+00 -7.343366e-10
-1.870000e+00 -7.443941e-10
-1.860001e+00 -7.545816e-10
-1.850000e+00 -7.648994e-10
-1.840000e+00 -7.753472e-10
-1.830000e+00 -7.859252e-10
-1.820001e+00 -7.966331e-10
-1.810000e+00 -8.074707e-10
-1.800000e+00 -8.184378e-10
-1.790000e+00 -8.295343e-10
-1.780001e+00 -8.407604e-10
-1.770000e+00 -8.521162e-10
-1.760000e+00 -8.636021e-10
-1.750000e+00 -8.752186e-10
-1.740000e+00 -8.869668e-10
-1.730000e+00 -8.988476e-10
-1.720000e+00 -9.108624e-10
-1.710000e+00 -9.230130e-10
-1.700000e+00 -9.353011e-10
-1.690001e+00 -9.477285e-10
-1.680000e+00 -9.602974e-10
-1.670000e+00 -9.730101e-10
-1.660000e+00 -9.858691e-10
-1.650001e+00 -9.988762e-10
-1.640000e+00 -1.012034e-09
-1.630000e+00 -1.025344e-09
-1.620000e+00 -1.038809e-09
-1.610001e+00 -1.052431e-09
-1.600000e+00 -1.066211e-09
-1.590000e+00 -1.080151e-09
-1.580000e+00 -1.094252e-09
-1.570001e+00 -1.108515e-09
-1.560000e+00 -1.122941e-09
-1.550000e+00 -1.137531e-09
-1.540000e+00 -1.152284e-09
-1.530001e+00 -1.167202e-09
-1.520000e+00 -1.182285e-09
-1.510000e+00 -1.197532e-09
-1.500000e+00 -1.212944e-09
-1.490000e+00 -1.228521e-09
-1.480000e+00 -1.244264e-09
-1.470000e+00 -1.260173e-09
-1.460000e+00 -1.276248e-09
-1.450000e+00 -1.292490e-09
-1.440001e+00 -1.308901e-09
-1.430000e+00 -1.325482e-09
-1.420000e+00 -1.342234e-09
-1.410000e+00 -1.359160e-09
-1.400001e+00 -1.376262e-09
-1.390000e+00 -1.393541e-09
-1.380000e+00 -1.411002e-09
-1.370000e+00 -1.428647e-09
-1.360001e+00 -1.446478e-09
-1.350000e+00 -1.464499e-09
-1.340000e+00 -1.482713e-09
-1.330000e+00 -1.501123e-09
-1.320001e+00 -1.519732e-09
-1.310000e+00 -1.538544e-09
-1.300000e+00 -1.557560e-09
-1.290000e+00 -1.576783e-09
-1.280001e+00 -1.596216e-09
-1.270000e+00 -1.615861e-09
-1.260000e+00 -1.635718e-09
-1.250000e+00 -1.655791e-09
-1.240000e+00 -1.676078e-09
-1.230000e+00 -1.696582e-09
-1.220000e+00 -1.717304e-09
-1.210000e+00 -1.738242e-09
-1.200000e+00 -1.759399e-09