-1.200000e+01 0.000000e+00
-1.199000e+01 0.000000e+00
-1.198000e+01 0.000000e+00
-1.197000e+01 0.000000e+00
-1.196000e+01 0.000000e+00
-1.195000e+01 0.000000e+00
-1.194000e+01 0.000000e+00
-1.193000e+01 -1.026189e-38
-1.192000e+01 -1.604943e-37
-1.191000e+01 -1.343178e-36
-1.190000e+01 -7.985225e-36
-1.189000e+01 -3.778932e-35
-1.188000e+01 -1.513116e-34
-1.187000e+01 -5.322750e-34
-1.186000e+01 -1.687070e-33
-1.185000e+01 -4.905333e-33
-1.184000e+01 -1.325962e-32
-1.183000e+01 -3.366303e-32
-1.182000e+01 -8.091261e-32
-1.181000e+01 -1.853149e-31
-1.180000e+01 -4.065474e-31
-1.179000e+01 -8.580287e-31
-1.178000e+01 -1.748478e-30
-1.177000e+01 -3.450825e-30
-1.176000e+01 -6.613530e-30
-1.175000e+01 -1.233609e-29
-1.174000e+01 -2.243946e-29
-1.173000e+01 -3.987385e-29
-1.172000e+01 -6.932104e-29
-1.171000e+01 -1.180666e-28
-1.170000e+01 -1.972398e-28
-1.169000e+01 -3.235424e-28
-1.168000e+01 -5.216192e-28
-1.167000e+01 -8.272485e-28
-1.166000e+01 -1.291567e-27
-1.165000e+01 -1.986561e-27
-1.164000e+01 -3.012097e-27
-1.163000e+01 -4.504742e-27
-1.162000e+01 -6.648661e-27
-1.161000e+01 -9.688824e-27
-1.160000e+01 -1.394667e-26
-1.159000e+01 -1.983840e-26
-1.158000e+01 -2.789569e-26
-1.157000e+01 -3.878877e-26
-1.156000e+01 -5.335116e-26
-1.155000e+01 -7.260536e-26
-1.154000e+01 -9.778837e-26
-1.153000e+01 -1.303751e-25
-1.152000e+01 -1.720979e-25
-1.151000e+01 -2.249596e-25
-1.150000e+01 -2.912363e-25
-1.149000e+01 -3.734673e-25
-1.148000e+01 -4.744276e-25
-1.147000e+01 -5.970781e-25
-1.146000e+01 -7.444907e-25
-1.145000e+01 -9.197425e-25
-1.144000e+01 -1.125776e-24
-1.143000e+01 -1.365222e-24
-1.142000e+01 -1.640185e-24
-1.141000e+01 -1.951991e-24
-1.140000e+01 -2.300894e-24
-1.139000e+01 -2.685756e-24
-1.138000e+01 -3.103703e-24
-1.137000e+01 -3.549769e-24
-1.136000e+01 -4.016537e-24
-1.135000e+01 -4.493817e-24
-1.134000e+01 -4.968356e-24
-1.133000e+01 -5.423619e-24
-1.132000e+01 -5.839681e-24
-1.131000e+01 -6.193233e-24
-1.130000e+01 -6.457762e-24
-1.129000e+01 -6.603904e-24
-1.128000e+01 -6.600023e-24
-1.127000e+01 -6.413011e-24
-1.126000e+01 -6.009341e-24
-1.125000e+01 -5.356360e-24
-1.124000e+01 -4.423812e-24
-1.123000e+01 -3.185575e-24
-1.122000e+01 -1.621559e-24
-1.121000e+01 2.802946e-25
-1.120000e+01 2.521984e-24
-1.119000e+01 5.093481e-24
-1.118000e+01 7.970942e-24
-1.117000e+01 1.111522e-23
-1.116000e+01 1.447076e-23
-1.115000e+01 1.796511e-23
-1.114000e+01 2.150901e-23
-1.113000e+01 2.499733e-23
-1.112000e+01 2.831078e-23
-1.111000e+01 3.131861e-23
-1.110000e+01 3.388218e-23
-1.109000e+01 3.585938e-23
-1.108000e+01 3.710985e-23
-1.107000e+01 3.750091e-23
-1.106000e+01 3.691379e-23
-1.105000e+01 3.525004e-23
-1.104000e+01 3.243788e-23
-1.103000e+01 2.843782e-23
-1.102000e+01 2.324757e-23
-1.101000e+01 1.690545e-23
-1.100000e+01 9.492185e-24
-1.099000e+01 1.130681e-24
-1.098000e+01 -8.016601e-24
-1.097000e+01 -1.775268e-23
-1.096000e+01 -2.785365e-23
-1.095000e+01 -3.807869e-23
-1.094000e+01 -4.818215e-23
-1.093000e+01 -5.792734e-23
-1.092000e+01 -6.710126e-23
-1.091000e+01 -7.552944e-23
-1.090000e+01 -8.308992e-23
-1.089000e+01 -8.972504e-23
-1.088000e+01 -9.545007e-23
-1.087000e+01 -1.003572e-22
-1.086000e+01 -1.046136e-22
-1.085000e+01 -1.084532e-22
-1.084000e+01 -1.121602e-22
-1.083000e+01 -1.160448e-22
-1.082000e+01 -1.204111e-22
-1.081000e+01 -1.255169e-22
-1.080000e+01 -1.315277e-22
-1.079000e+01 -1.384656e-22
-1.078000e+01 -1.461566e-22
-1.077000e+01 -1.541779e-22
-1.076000e+01 -1.618117e-22
-1.075000e+01 -1.680069e-22
-1.074000e+01 -1.713547e-22
-1.073000e+01 -1.700832e-22
-1.072000e+01 -1.620754e-22
-1.071000e+01 -1.449141e-22
-1.070000e+01 -1.159588e-22
-1.069000e+01 -7.245543e-23
-1.068000e+01 -1.168151e-23
-1.067000e+01 6.887553e-23
-1.066000e+01 1.713086e-22
-1.065000e+01 2.970557e-22
-1.064000e+01 4.466466e-22
-1.063000e+01 6.194416e-22
-1.062000e+01 8.133763e-22
-1.061000e+01 1.024726e-21
-1.060000e+01 1.247907e-21
-1.059000e+01 1.475336e-21
-1.058000e+01 1.697362e-21
-1.057000e+01 1.902292e-21
-1.056000e+01 2.076531e-21
-1.055000e+01 2.204842e-21
-1.054000e+01 2.270754e-21
-1.053000e+01 2.257100e-21
-1.052000e+01 2.146714e-21
-1.051000e+01 1.923256e-21
-1.050000e+01 1.572162e-21
-1.049000e+01 1.081701e-21
-1.048000e+01 4.440814e-22
-1.047000e+01 -3.434006e-22
-1.046000e+01 -1.277250e-21
-1.045000e+01 -2.346744e-21
-1.044000e+01 -3.533050e-21
-1.043000e+01 -4.808562e-21
-1.042000e+01 -6.136524e-21
-1.041000e+01 -7.471009e-21
-1.040000e+01 -8.757301e-21
-1.039000e+01 -9.932772e-21
-1.038000e+01 -1.092823e-20
-1.037000e+01 -1.166985e-20
-1.036000e+01 -1.208156e-20
-1.035000e+01 -1.208802e-20
-1.034000e+01 -1.161800e-20
-1.033000e+01 -1.060820e-20
-1.032000e+01 -9.007231e-21
-1.031000e+01 -6.779861e-21
-1.030000e+01 -3.911153e-21
-1.029000e+01 -4.103935e-22
-1.028000e+01 3.685395e-21
-1.027000e+01 8.308595e-21
-1.026000e+01 1.335901e-20
-1.025000e+01 1.870299e-20
-1.024000e+01 2.417380e-20
-1.023000e+01 2.957353e-20
-1.022000e+01 3.467656e-20
-1.021000e+01 3.923476e-20
-1.020000e+01 4.298436e-20
-1.019000e+01 4.565458e-20
-1.018000e+01 4.697771e-20
-1.017000e+01 4.670057e-20
-1.016000e+01 4.459702e-20
-1.015000e+01 4.048114e-20
-1.014000e+01 3.422054e-20
-1.013000e+01 2.574937e-20
-1.012000e+01 1.508037e-20
-1.011000e+01 2.315409e-21
-1.010000e+01 -1.234632e-20
-1.009000e+01 -2.860289e-20
-1.008000e+01 -4.604771e-20
-1.007000e+01 -6.417168e-20
-1.006000e+01 -8.236976e-20
-1.005000e+01 -9.995233e-20
-1.004000e+01 -1.161615e-19
-1.003000e+01 -1.301922e-19
-1.002000e+01 -1.412183e-19
-1.001000e+01 -1.484223e-19
-1.000000e+01 -1.510292e-19
-9.990000e+00 -1.483424e-19
-9.980000e+00 -1.397813e-19
-9.970000e+00 -1.249186e-19
-9.960000e+00 -1.035169e-19
-9.950000e+00 -7.556150e-20
-9.940001e+00 -4.128834e-20
-9.930000e+00 -1.205935e-21
-9.920000e+00 4.389124e-20
-9.910000e+00 9.291907e-20
-9.900000e+00 1.445111e-19
-9.890000e+00 1.970380e-19
-9.880000e+00 2.486394e-19
-9.870000e+00 2.972688e-19
-9.860001e+00 3.407516e-19
-9.850000e+00 3.768535e-19
-9.840000e+00 4.033608e-19
-9.830000e+00 4.181681e-19
-9.820000e+00 4.193716e-19
-9.809999e+00 4.053664e-19
-9.800000e+00 3.749412e-19
-9.790000e+00 3.273700e-19
-9.780000e+00 2.624939e-19
-9.770000e+00 1.807905e-19
-9.760000e+00 8.342604e-20
-9.750000e+00 -2.771364e-20
-9.740000e+00 -1.500166e-19
-9.730000e+00 -2.801659e-19
-9.720000e+00 -4.141898e-19
-9.710000e+00 -5.475433e-19
-9.700000e+00 -6.752201e-19
-9.690001e+00 -7.918947e-19
-9.680000e+00 -8.920913e-19
-9.670000e+00 -9.703759e-19
-9.660000e+00 -1.021568e-18
-9.650000e+00 -1.040965e-18
-9.640000e+00 -1.024567e-18
-9.630000e+00 -9.693036e-19
-9.620000e+00 -8.732450e-19
-9.610001e+00 -7.357909e-19
-9.600000e+00 -5.578289e-19
-9.590000e+00 -3.418505e-19
-9.580000e+00 -9.201769e-20
-9.570000e+00 1.858266e-19
-9.559999e+00 4.842124e-19
-9.550000e+00 7.941635e-19
-9.540000e+00 1.105388e-18
-9.530000e+00 1.406535e-18
-9.520000e+00 1.685524e-18
-9.510000e+00 1.929924e-18
-9.500000e+00 2.127388e-18
-9.490000e+00 2.266128e-18
-9.480000e+00 2.335412e-18
-9.470000e+00 2.326066e-18
-9.460000e+00 2.230967e-18
-9.450000e+00 2.045511e-18
-9.440001e+00 1.768016e-18
-9.430000e+00 1.400066e-18
-9.420000e+00 9.467580e-19
-9.410000e+00 4.168382e-19
-9.400000e+00 -1.772828e-19
-9.390000e+00 -8.196535e-19
-9.380000e+00 -1.491049e-18
-9.370000e+00 -2.169387e-18
-9.360001e+00 -2.830288e-18
-9.350000e+00 -3.447770e-18
-9.340000e+00 -3.995073e-18
-9.330000e+00 -4.445583e-18
-9.320000e+00 -4.773829e-18
-9.309999e+00 -4.956543e-18
-9.300000e+00 -4.973707e-18
-9.290000e+00 -4.809600e-18
-9.280000e+00 -4.453759e-18
-9.270000e+00 -3.901841e-18
-9.260000e+00 -3.156321e-18
-9.250000e+00 -2.227020e-18
-9.240000e+00 -1.131381e-18
-9.230000e+00 1.054861e-19
-9.220000e+00 1.451059e-18
-9.210000e+00 2.865942e-18
-9.200000e+00 4.304703e-18
-9.190001e+00 5.717014e-18
-9.180000e+00 7.049055e-18
-9.170000e+00 8.245181e-18
-9.160000e+00 9.249775e-18
-9.150000e+00 1.000929e-17
-9.140000e+00 1.047434e-17
-9.130000e+00 1.060189e-17
-9.120000e+00 1.035728e-17
-9.110001e+00 9.716271e-18
-9.100000e+00 8.666715e-18
-9.090000e+00 7.210076e-18
-9.080000e+00 5.362479e-18
-9.070000e+00 3.155380e-18
-9.060000e+00 6.357051e-19
-9.050000e+00 -2.134530e-18
-9.040000e+00 -5.079181e-18
-9.030000e+00 -8.109520e-18
-9.020000e+00 -1.112634e-17
-9.010000e+00 -1.402259e-17
-9.000000e+00 -1.668655e-17
-8.990000e+00 -1.900533e-17
-8.980000e+00 -2.086877e-17
-8.970000e+00 -2.217347e-17
-8.960000e+00 -2.282698e-17
-8.950000e+00 -2.275182e-17
-8.940001e+00 -2.188938e-17
-8.930000e+00 -2.020343e-17
-8.920000e+00 -1.768303e-17
-8.910000e+00 -1.434494e-17
-8.900000e+00 -1.023511e-17
-8.890000e+00 -5.429319e-18
-8.880000e+00 -3.286105e-20
-8.870000e+00 5.820850e-18
-8.860001e+00 1.197272e-17
-8.850000e+00 1.824146e-17
-8.840000e+00 2.442812e-17
-8.830000e+00 3.032145e-17
-8.820000e+00 3.570419e-17
-8.810000e+00 4.035987e-17
-8.800000e+00 4.408013e-17
-8.790000e+00 4.667224e-17
-8.780000e+00 4.796661e-17
-8.770000e+00 4.782398e-17
-8.760000e+00 4.614218e-17
-8.750000e+00 4.286198e-17
-8.740000e+00 3.797197e-17
-8.730000e+00 3.151211e-17
-8.720000e+00 2.357581e-17
-8.710000e+00 1.431048e-17
-8.700000e+00 3.916123e-18
-8.690001e+00 -7.357698e-18
-8.680000e+00 -1.921681e-17
-8.670000e+00 -3.132911e-17
-8.660000e+00 -4.333290e-17
-8.650000e+00 -5.484671e-17
-8.640000e+00 -6.548029e-17
-8.630000e+00 -7.484659e-17
-8.620000e+00 -8.257426e-17
-8.610001e+00 -8.832046e-17
-8.600000e+00 -9.178337e-17
-8.590000e+00 -9.271416e-17
-8.580000e+00 -9.092785e-17
-8.570000e+00 -8.631283e-17
-8.560000e+00 -7.883843e-17
-8.550000e+00 -6.856038e-17
-8.540000e+00 -5.562383e-17
-8.530000e+00 -4.026367e-17
-8.520000e+00 -2.280200e-17
-8.510000e+00 -3.642788e-18
-8.500000e+00 1.673635e-17
-8.490000e+00 3.779508e-17
-8.480000e+00 5.894380e-17
-8.470000e+00 7.955920e-17
-8.460000e+00 9.900168e-17
-8.450000e+00 1.166342e-16
-8.440001e+00 1.318414e-16
-8.430000e+00 1.440500e-16
-8.420000e+00 1.527476e-16
-8.410000e+00 1.575010e-16
-8.400000e+00 1.579734e-16
-8.390000e+00 1.539385e-16
-8.380000e+00 1.452926e-16
-8.370000e+00 1.320630e-16
-8.360001e+00 1.144129e-16
-8.350000e+00 9.264308e-17
-8.340000e+00 6.718862e-17
-8.330000e+00 3.861194e-17
-8.320000e+00 7.591936e-18
-8.310000e+00 -2.509098e-17
-8.300000e+00 -5.857324e-17
-8.290000e+00 -9.192967e-17
-8.280000e+00 -1.241975e-16
-8.270000e+00 -1.544027e-16
-8.260000e+00 -1.815868e-16
-8.250000e+00 -2.048354e-16
-8.240000e+00 -2.233054e-16
-8.230000e+00 -2.362516e-16
-8.220000e+00 -2.430518e-16
-8.210000e+00 -2.432287e-16
-8.200000e+00 -2.364692e-16
-8.190001e+00 -2.226397e-16
-8.180000e+00 -2.017966e-16
-8.170000e+00 -1.741932e-16
-8.160000e+00 -1.402801e-16
-8.150000e+00 -1.007019e-16
-8.140000e+00 -5.628789e-17
-8.130000e+00 -8.037937e-18
-8.120000e+00 4.289649e-17
-8.110001e+00 9.523568e-17
-8.100000e+00 1.475990e-16
-8.090000e+00 1.985360e-16
-8.080000e+00 2.465595e-16
-8.070000e+00 2.901818e-16
-8.060000e+00 3.279515e-16
-8.050000e+00 3.584914e-16
-8.040000e+00 3.805354e-16
-8.030000e+00 3.929658e-16
-8.020000e+00 3.948471e-16
-8.010000e+00 3.854589e-16
-8.000000e+00 3.643246e-16
-7.990000e+00 3.312368e-16
-7.980000e+00 2.862772e-16
-7.970000e+00 2.298330e-16
-7.960000e+00 1.626067e-16
-7.950000e+00 8.562000e-17
-7.940000e+00 2.113445e-19
-7.930000e+00 -9.197294e-17
-7.920000e+00 -1.889949e-16
-7.910000e+00 -2.886482e-16
-7.900000e+00 -3.884890e-16
-7.890000e+00 -4.858734e-16
-7.880000e+00 -5.780033e-16
-7.870000e+00 -6.619783e-16
-7.860000e+00 -7.348548e-16
-7.850000e+00 -7.937114e-16
-7.840000e+00 -8.357194e-16
-7.830000e+00 -8.582194e-16
-7.820000e+00 -8.587989e-16
-7.810000e+00 -8.353752e-16
-7.800000e+00 -7.862773e-16
-7.790000e+00 -7.103268e-16
-7.780000e+00 -6.069168e-16
-7.770000e+00 -4.760843e-16
-7.760000e+00 -3.185762e-16
-7.750000e+00 -1.359028e-16
-7.740000e+00 6.961835e-17
-7.730000e+00 2.948377e-16
-7.720000e+00 5.357650e-16
-7.710000e+00 7.875826e-16
-7.700000e+00 1.044681e-15
-7.690000e+00 1.300721e-15
-7.680000e+00 1.548721e-15
-7.670000e+00 1.781168e-15
-7.660000e+00 1.990169e-15
-7.650000e+00 2.167609e-15
-7.640000e+00 2.305355e-15
-7.630000e+00 2.395468e-15
-7.620000e+00 2.430439e-15
-7.610000e+00 2.403444e-15
-7.600000e+00 2.308605e-15
-7.590000e+00 2.141248e-15
-7.580000e+00 1.898169e-15
-7.570000e+00 1.577877e-15
-7.560000e+00 1.180819e-15
-7.550000e+00 7.095772e-16
-7.540000e+00 1.690248e-16
-7.530000e+00 -4.335665e-16
-7.520000e+00 -1.088475e-15
-7.510000e+00 -1.783543e-15
-7.500000e+00 -2.504256e-15
-7.490000e+00 -3.233908e-15
-7.480000e+00 -3.953836e-15
-7.470000e+00 -4.643741e-15
-7.460000e+00 -5.282083e-15
-7.450000e+00 -5.846560e-15
-7.440000e+00 -6.314646e-15
-7.430000e+00 -6.664199e-15
-7.420000e+00 -6.874111e-15
-7.410000e+00 -6.924997e-15
-7.400000e+00 -6.799899e-15
-7.390000e+00 -6.484991e-15
-7.380000e+00 -5.970258e-15
-7.370000e+00 -5.250141e-15
-7.360000e+00 -4.324102e-15
-7.350000e+00 -3.197109e-15
-7.340000e+00 -1.880016e-15
-7.330000e+00 -3.897903e-16
-7.320000e+00 1.250388e-15
-7.310000e+00 3.011210e-15
-7.300000e+00 4.857490e-15
-7.290000e+00 6.748610e-15
-7.280000e+00 8.639159e-15
-7.270000e+00 1.047975e-14
-7.260000e+00 1.221803e-14
-7.250000e+00 1.379984e-14
-7.240000e+00 1.517055e-14
-7.230000e+00 1.627650e-14
-7.220000e+00 1.706651e-14
-7.210000e+00 1.749350e-14
-7.200000e+00 1.751607e-14
-7.190000e+00 1.710008e-14
-7.180000e+00 1.622015e-14
-7.170000e+00 1.486104e-14
-7.160000e+00 1.301881e-14
-7.150000e+00 1.070187e-14
-7.140000e+00 7.931639e-15
-7.130000e+00 4.742986e-15
-7.120000e+00 1.184316e-15
-7.110000e+00 -2.682713e-15
-7.100000e+00 -6.783851e-15
-7.090000e+00 -1.103330e-14
-7.080000e+00 -1.533515e-14
-7.070000e+00 -1.958518e-14
-7.060000e+00 -2.367300e-14
-7.050000e+00 -2.748455e-14
-7.040000e+00 -3.090480e-14
-7.030000e+00 -3.382070e-14
-7.020000e+00 -3.612426e-14
-7.010000e+00 -3.771572e-14
-7.000000e+00 -3.850663e-14
-6.990000e+00 -3.842294e-14
-6.980000e+00 -3.740780e-14
-6.970000e+00 -3.542415e-14
-6.960000e+00 -3.245691e-14
-6.950000e+00 -2.851473e-14
-6.940000e+00 -2.363124e-14
-6.930000e+00 -1.786570e-14
-6.920000e+00 -1.130300e-14
-6.910000e+00 -4.053067e-15
-6.900000e+00 3.750526e-15
-6.890000e+00 1.195256e-14
-6.880000e+00 2.037886e-14
-6.870000e+00 2.883968e-14
-6.860000e+00 3.713360e-14
-6.850000e+00 4.505194e-14
-6.840000e+00 5.238369e-14
-6.830000e+00 5.892061e-14
-6.820000e+00 6.446268e-14
-6.810000e+00 6.882343e-14
-6.800000e+00 7.183540e-14
-6.790000e+00 7.335519e-14
-6.780000e+00 7.326826e-14
-6.770000e+00 7.149324e-14
-6.760000e+00 6.798545e-14
-6.750000e+00 6.273983e-14
-6.740000e+00 5.579292e-14
-6.730000e+00 4.722383e-14
-6.720000e+00 3.715429e-14
-6.710000e+00 2.574753e-14
-6.700000e+00 1.320611e-14
-6.690000e+00 -2.313396e-16
-6.680000e+00 -1.429440e-14
-6.670000e+00 -2.868613e-14
-6.660000e+00 -4.308924e-14
-6.650000e+00 -5.717296e-14
-6.640000e+00 -7.060057e-14
-6.630000e+00 -8.303728e-14
-6.620000e+00 -9.415847e-14
-6.610000e+00 -1.036579e-13
-6.600000e+00 -1.112557e-13
-6.590000e+00 -1.167064e-13
-6.580000e+00 -1.198056e-13
-6.570000e+00 -1.203967e-13
-6.560000e+00 -1.183761e-13
-6.550000e+00 -1.136975e-13
-6.540000e+00 -1.063751e-13
-6.530000e+00 -9.648472e-14
-6.520000e+00 -8.416463e-14
-6.510000e+00 -6.961359e-14
-6.500000e+00 -5.308820e-14
-6.490000e+00 -3.489851e-14
-6.480000e+00 -1.540209e-14
-6.470000e+00 5.003043e-15
-6.460000e+00 2.588680e-14
-6.450000e+00 4.679637e-14
-6.440000e+00 6.726636e-14
-6.430000e+00 8.682950e-14
-6.420000e+00 1.050277e-13
-6.410000e+00 1.214231e-13
-6.400000e+00 1.356091e-13
-6.390000e+00 1.472203e-13
-6.380000e+00 1.559428e-13
-6.370000e+00 1.615222e-13
-6.360000e+00 1.637710e-13
-6.350000e+00 1.625750e-13
-6.340000e+00 1.578971e-13
-6.330000e+00 1.497798e-13
-6.320000e+00 1.383460e-13
-6.310000e+00 1.237976e-13
-6.300000e+00 1.064126e-13
-6.290000e+00 8.653915e-14
-6.280000e+00 6.458969e-14
-6.270000e+00 4.103166e-14
-6.260000e+00 1.637766e-14
-6.250000e+00 -8.825898e-15
-6.240000e+00 -3.401114e-14
-6.230000e+00 -5.860188e-14
-6.220000e+00 -8.202713e-14
-6.210000e+00 -1.037348e-13
-6.200000e+00 -1.232052e-13
-6.190000e+00 -1.399640e-13
-6.180000e+00 -1.535942e-13
-6.170000e+00 -1.637475e-13
-6.160000e+00 -1.701534e-13
-6.150000e+00 -1.726274e-13
-6.140000e+00 -1.710773e-13
-6.130000e+00 -1.655064e-13
-6.120000e+00 -1.560164e-13
-6.110000e+00 -1.428061e-13
-6.100000e+00 -1.261693e-13
-6.090000e+00 -1.064901e-13
-6.080000e+00 -8.423505e-14
-6.070000e+00 -5.994524e-14
-6.060000e+00 -3.422474e-14
-6.050000e+00 -7.728457e-15
-6.040000e+00 1.885162e-14
-6.030000e+00 4.480120e-14
-6.020000e+00 6.939921e-14
-6.010000e+00 9.193353e-14
-6.000000e+00 1.117170e-13
-5.990000e+00 1.281026e-13
-5.980000e+00 1.404986e-13
-5.970000e+00 1.483821e-13
-5.960000e+00 1.513114e-13
-5.950000e+00 1.489364e-13
-5.940000e+00 1.410079e-13
-5.930000e+00 1.273838e-13
-5.920000e+00 1.080337e-13
-5.910000e+00 8.304027e-14
-5.900000e+00 5.259924e-14
-5.890000e+00 1.701578e-14
-5.880000e+00 -2.330095e-14
-5.870000e+00 -6.784580e-14
-5.860000e+00 -1.160279e-13
-5.850000e+00 -1.671828e-13
-5.840000e+00 -2.205865e-13
-5.830000e+00 -2.754711e-13
-5.820000e+00 -3.310409e-13
-5.810000e+00 -3.864906e-13
-5.800000e+00 -4.410223e-13
-5.790000e+00 -4.938636e-13
-5.780000e+00 -5.442850e-13
-5.770000e+00 -5.916169e-13
-5.760000e+00 -6.352642e-13
-5.750000e+00 -6.747212e-13
-5.740000e+00 -7.095828e-13
-5.730000e+00 -7.395551e-13
-5.720000e+00 -7.644623e-13
-5.710000e+00 -7.842520e-13
-5.700000e+00 -7.989974e-13
-5.690000e+00 -8.088960e-13
-5.680000e+00 -8.142667e-13
-5.670000e+00 -8.155427e-13
-5.660000e+00 -8.132629e-13
-5.650000e+00 -8.080600e-13
-5.640000e+00 -8.006464e-13
-5.630000e+00 -7.917985e-13
-5.620000e+00 -7.823383e-13
-5.610000e+00 -7.731148e-13
-5.600000e+00 -7.649840e-13
-5.590000e+00 -7.587888e-13
-5.580000e+00 -7.553380e-13
-5.570000e+00 -7.553870e-13
-5.560000e+00 -7.596189e-13
-5.550000e+00 -7.686273e-13
-5.540000e+00 -7.829004e-13
-5.530000e+00 -8.028084e-13
-5.520000e+00 -8.285929e-13
-5.510000e+00 -8.603591e-13
-5.500000e+00 -8.980720e-13
-5.490000e+00 -9.415548e-13
-5.480000e+00 -9.904925e-13
-5.470000e+00 -1.044437e-12
-5.460000e+00 -1.102817e-12
-5.450000e+00 -1.164950e-12
-5.440000e+00 -1.230058e-12
-5.430000e+00 -1.297288e-12
-5.420000e+00 -1.365728e-12
-5.410000e+00 -1.434433e-12
-5.400000e+00 -1.502448e-12
-5.390000e+00 -1.568830e-12
-5.380000e+00 -1.632676e-12
-5.370000e+00 -1.693142e-12
-5.360000e+00 -1.749472e-12
-5.350000e+00 -1.801011e-12
-5.340000e+00 -1.847232e-12
-5.330000e+00 -1.887747e-12
-5.320000e+00 -1.922320e-12
-5.310000e+00 -1.950877e-12
-5.300000e+00 -1.973513e-12
-5.290000e+00 -1.990488e-12
-5.280000e+00 -2.002228e-12
-5.270000e+00 -2.009315e-12
-5.260000e+00 -2.012476e-12
-5.250000e+00 -2.012570e-12
-5.240000e+00 -2.010563e-12
-5.230000e+00 -2.007510e-12
-5.220000e+00 -2.004529e-12
-5.210000e+00 -2.002773e-12
-5.200000e+00 -2.003402e-12
-5.190000e+00 -2.007555e-12
-5.180000e+00 -2.016320e-12
-5.170000e+00 -2.030707e-12
-5.160000e+00 -2.051620e-12
-5.150000e+00 -2.079833e-12
-5.140000e+00 -2.115971e-12
-5.130000e+00 -2.160490e-12
-5.120000e+00 -2.213664e-12
-5.110000e+00 -2.275580e-12
-5.100000e+00 -2.346127e-12
-5.090000e+00 -2.425004e-12
-5.080000e+00 -2.511720e-12
-5.070000e+00 -2.605608e-12
-5.060000e+00 -2.705844e-12
-5.050000e+00 -2.811457e-12
-5.040000e+00 -2.921363e-12
-5.030000e+00 -3.034387e-12
-5.020000e+00 -3.149292e-12
-5.010000e+00 -3.264814e-12
-5.000000e+00 -3.379690e-12
-4.990000e+00 -3.492693e-12
-4.980000e+00 -3.602663e-12
-4.970000e+00 -3.708538e-12
-4.960000e+00 -3.809381e-12
-4.950000e+00 -3.904402e-12
-4.940000e+00 -3.992985e-12
-4.930000e+00 -4.074698e-12
-4.920000e+00 -4.149307e-12
-4.910000e+00 -4.216784e-12
-4.900000e+00 -4.277307e-12
-4.890000e+00 -4.331255e-12
-4.880000e+00 -4.379200e-12
-4.870000e+00 -4.421890e-12
-4.860000e+00 -4.460236e-12
-4.850000e+00 -4.495283e-12
-4.840000e+00 -4.528190e-12
-4.830000e+00 -4.560196e-12
-4.820000e+00 -4.592591e-12
-4.810000e+00 -4.626692e-12
-4.800000e+00 -4.663801e-12
-4.790000e+00 -4.705179e-12
-4.780000e+00 -4.752022e-12
-4.770000e+00 -4.805425e-12
-4.760000e+00 -4.866369e-12
-4.750000e+00 -4.935692e-12
-4.740000e+00 -5.014084e-12
-4.730000e+00 -5.102063e-12
-4.720000e+00 -5.199982e-12
-4.710000e+00 -5.308016e-12
-4.700000e+00 -5.426174e-12
-4.690000e+00 -5.554300e-12
-4.680000e+00 -5.692090e-12
-4.670000e+00 -5.839100e-12
-4.660000e+00 -5.994773e-12
-4.650000e+00 -6.158452e-12
-4.640000e+00 -6.329404e-12
-4.630000e+00 -6.506844e-12
-4.620000e+00 -6.689955e-12
-4.610000e+00 -6.877915e-12
-4.600000e+00 -7.069913e-12
-4.590000e+00 -7.265171e-12
-4.580000e+00 -7.462956e-12
-4.570000e+00 -7.662595e-12
-4.560000e+00 -7.863495e-12
-4.550000e+00 -8.065129e-12
-4.540000e+00 -8.267059e-12
-4.530000e+00 -8.468923e-12
-4.520000e+00 -8.670440e-12
-4.510000e+00 -8.871397e-12
-4.500000e+00 -9.071644e-12
-4.490000e+00 -9.271086e-12
-4.480000e+00 -9.469663e-12
-4.470000e+00 -9.667350e-12
-4.460000e+00 -9.864136e-12
-4.450000e+00 -1.006001e-11
-4.440000e+00 -1.025497e-11
-4.430000e+00 -1.044898e-11
-4.420000e+00 -1.064202e-11
-4.410000e+00 -1.083400e-11
-4.400000e+00 -1.102487e-11
-4.390000e+00 -1.121452e-11
-4.380000e+00 -1.140284e-11
-4.370000e+00 -1.158974e-11
-4.360000e+00 -1.177513e-11
-4.350000e+00 -1.195895e-11
-4.340000e+00 -1.214119e-11
-4.330000e+00 -1.232189e-11
-4.320000e+00 -1.250119e-11
-4.310000e+00 -1.267933e-11
-4.300000e+00 -1.285665e-11
-4.290000e+00 -1.303364e-11
-4.280000e+00 -1.321090e-11
-4.270000e+00 -1.338922e-11
-4.260000e+00 -1.356950e-11
-4.250000e+00 -1.375281e-11
-4.240000e+00 -1.394037e-11
-4.230000e+00 -1.413351e-11
-4.220000e+00 -1.433370e-11
-4.210000e+00 -1.454246e-11
-4.200000e+00 -1.476140e-11
-4.190000e+00 -1.499216e-11
-4.180000e+00 -1.523635e-11
-4.170000e+00 -1.549555e-11
-4.160000e+00 -1.577126e-11
-4.150000e+00 -1.606484e-11
-4.140000e+00 -1.637747e-11
-4.130000e+00 -1.671016e-11
-4.120000e+00 -1.706364e-11
-4.110000e+00 -1.743837e-11
-4.100000e+00 -1.783453e-11
-4.090000e+00 -1.825197e-11
-4.080000e+00 -1.869019e-11
-4.070000e+00 -1.914836e-11
-4.060000e+00 -1.962532e-11
-4.050000e+00 -2.011958e-11
-4.040000e+00 -2.062933e-11
-4.030000e+00 -2.115252e-11
-4.020000e+00 -2.168683e-11
-4.010000e+00 -2.222975e-11
-4.000000e+00 -2.277865e-11
-3.990000e+00 -2.333078e-11
-3.980000e+00 -2.388340e-11
-3.970000e+00 -2.443376e-11
-3.960000e+00 -2.497925e-11
-3.950000e+00 -2.551740e-11
-3.940001e+00 -2.604597e-11
-3.930000e+00 -2.656300e-11
-3.920000e+00 -2.706687e-11
-3.910000e+00 -2.755633e-11
-3.900001e+00 -2.803055e-11
-3.890000e+00 -2.848915e-11
-3.880000e+00 -2.893223e-11
-3.870000e+00 -2.936035e-11
-3.860001e+00 -2.977456e-11
-3.850000e+00 -3.017636e-11
-3.840000e+00 -3.056772e-11
-3.830000e+00 -3.095098e-11
-3.820001e+00 -3.132890e-11
-3.810000e+00 -3.170452e-11
-3.800000e+00 -3.208116e-11
-3.790000e+00 -3.246235e-11
-3.780000e+00 -3.285172e-11
-3.770000e+00 -3.325300e-11
-3.760000e+00 -3.366988e-11
-3.750000e+00 -3.410597e-11
-3.740000e+00 -3.456474e-11
-3.730000e+00 -3.504941e-11
-3.720000e+00 -3.556295e-11
-3.710000e+00 -3.610795e-11
-3.700000e+00 -3.668663e-11
-3.690001e+00 -3.730077e-11
-3.680000e+00 -3.795169e-11
-3.670000e+00 -3.864021e-11
-3.660000e+00 -3.936666e-11
-3.650001e+00 -4.013086e-11
-3.640000e+00 -4.093214e-11
-3.630000e+00 -4.176935e-11
-3.620000e+00 -4.264088e-11
-3.610001e+00 -4.354472e-11
-3.600000e+00 -4.447847e-11
-3.590000e+00 -4.543943e-11
-3.580000e+00 -4.642462e-11
-3.570001e+00 -4.743087e-11
-3.560000e+00 -4.845484e-11
-3.550000e+00 -4.949317e-11
-3.540000e+00 -5.054244e-11
-3.530000e+00 -5.159934e-11
-3.520000e+00 -5.266067e-11
-3.510000e+00 -5.372342e-11
-3.500000e+00 -5.478485e-11
-3.490000e+00 -5.584250e-11
-3.480000e+00 -5.689431e-11
-3.470000e+00 -5.793856e-11
-3.460000e+00 -5.897403e-11
-3.450000e+00 -5.999991e-11
-3.440001e+00 -6.101589e-11
-3.430000e+00 -6.202216e-11
-3.420000e+00 -6.301939e-11
-3.410000e+00 -6.400873e-11
-3.400001e+00 -6.499180e-11
-3.390000e+00 -6.597066e-11
-3.380000e+00 -6.694777e-11
-3.370000e+00 -6.792598e-11
-3.360001e+00 -6.890843e-11
-3.350000e+00 -6.989854e-11
-3.340000e+00 -7.089992e-11
-3.330000e+00 -7.191631e-11
-3.320001e+00 -7.295154e-11
-3.310000e+00 -7.400942e-11
-3.300000e+00 -7.509370e-11
-3.290000e+00 -7.620795e-11
-3.280000e+00 -7.735557e-11
-3.270000e+00 -7.853965e-11
-3.260000e+00 -7.976293e-11
-3.250000e+00 -8.102778e-11
-3.240000e+00 -8.233611e-11
-3.230000e+00 -8.368933e-11
-3.220000e+00 -8.508835e-11
-3.210000e+00 -8.653354e-11
-3.200000e+00 -8.802473e-11
-3.190001e+00 -8.956118e-11
-3.180000e+00 -9.114166e-11
-3.170000e+00 -9.276441e-11
-3.160000e+00 -9.442727e-11
-3.150001e+00 -9.612759e-11
-3.140000e+00 -9.786241e-11
-3.130000e+00 -9.962851e-11
-3.120000e+00 -1.014225e-10
-3.110001e+00 -1.032408e-10
-3.100000e+00 -1.050798e-10
-3.090000e+00 -1.069361e-10
-3.080000e+00 -1.088064e-10
-3.070001e+00 -1.106875e-10
-3.060000e+00 -1.125768e-10
-3.050000e+00 -1.144720e-10
-3.040000e+00 -1.163713e-10
-3.030000e+00 -1.182733e-10
-3.020000e+00 -1.201776e-10
-3.010000e+00 -1.220840e-10
-3.000000e+00 -1.239932e-10
-2.990000e+00 -1.259065e-10
-2.980000e+00 -1.278260e-10
-2.970000e+00 -1.297541e-10
-2.960000e+00 -1.316939e-10
-2.950000e+00 -1.336492e-10
-2.940001e+00 -1.356239e-10
-2.930000e+00 -1.376224e-10
-2.920000e+00 -1.396494e-10
-2.910000e+00 -1.417096e-10
-2.900001e+00 -1.438077e-10
-2.890000e+00 -1.459484e-10
-2.880000e+00 -1.481362e-10
-2.870000e+00 -1.503752e-10
-2.860001e+00 -1.526689e-10
-2.850000e+00 -1.550207e-10
-2.840000e+00 -1.574331e-10
-2.830000e+00 -1.599080e-10
-2.820001e+00 -1.624466e-10
-2.810000e+00 -1.650494e-10
-2.800000e+00 -1.677160e-10
-2.790000e+00 -1.704456e-10
-2.780000e+00 -1.732364e-10
-2.770000e+00 -1.760862e-10
-2.760000e+00 -1.789919e-10
-2.750000e+00 -1.819503e-10
-2.740000e+00 -1.849575e-10
-2.730000e+00 -1.880097e-10
-2.720000e+00 -1.911025e-10
-2.710000e+00 -1.942319e-10
-2.700000e+00 -1.973938e-10
-2.690001e+00 -2.005842e-10
-2.680000e+00 -2.037998e-10
-2.670000e+00 -2.070375e-10
-2.660000e+00 -2.102949e-10
-2.650001e+00 -2.135701e-10
-2.640000e+00 -2.168619e-10
-2.630000e+00 -2.201700e-10
-2.620000e+00 -2.234948e-10
-2.610001e+00 -2.268373e-10
-2.600000e+00 -2.301994e-10
-2.590000e+00 -2.335837e-10
-2.580000e+00 -2.369933e-10
-2.570001e+00 -2.404320e-10
-2.560000e+00 -2.439040e-10
-2.550000e+00 -2.474139e-10
-2.540000e+00 -2.509663e-10
-2.530001e+00 -2.545662e-10
-2.520000e+00 -2.582184e-10
-2.510000e+00 -2.619277e-10
-2.500000e+00 -2.656985e-10
-2.490000e+00 -2.695349e-10
-2.480000e+00 -2.734406e-10
-2.470000e+00 -2.774187e-10
-2.460000e+00 -2.814718e-10
-2.450000e+00 -2.856018e-10
-2.440001e+00 -2.898100e-10
-2.430000e+00 -2.940970e-10
-2.420000e+00 -2.984628e-10
-2.410000e+00 -3.029067e-10
-2.400001e+00 -3.074278e-10
-2.390000e+00 -3.120243e-10
-2.380000e+00 -3.166944e-10
-2.370000e+00 -3.214359e-10
-2.360001e+00 -3.262464e-10
-2.350000e+00 -3.311233e-10
-2.340000e+00 -3.360644e-10
-2.330000e+00 -3.410673e-10
-2.320001e+00 -3.461300e-10
-2.310000e+00 -3.512509e-10
-2.300000e+00 -3.564285e-10
-2.290000e+00 -3.616620e-10
-2.280001e+00 -3.669511e-10
-2.270000e+00 -3.722957e-10
-2.260000e+00 -3.776965e-10
-2.250000e+00 -3.831545e-10
-2.240000e+00 -3.886712e-10
-2.230000e+00 -3.942485e-10
-2.220000e+00 -3.998886e-10
-2.210000e+00 -4.055940e-10
-2.200000e+00 -4.113674e-10
-2.190001e+00 -4.172113e-10
-2.180000e+00 -4.231287e-10
-2.170000e+00 -4.291220e-10
-2.160000e+00 -4.351939e-10
-2.150001e+00 -4.413464e-10
-2.140000e+00 -4.475816e-10
-2.130000e+00 -4.539011e-10
-2.120000e+00 -4.603060e-10
-2.110001e+00 -4.667972e-10
-2.100000e+00 -4.733752e-10
-2.090000e+00 -4.800402e-10
-2.080000e+00 -4.867918e-10
-2.070001e+00 -4.936295e-10
-2.060000e+00 -5.005528e-10
-2.050000e+00 -5.075605e-10
-2.040000e+00 -5.146518e-10
-2.030001e+00 -5.218258e-10
-2.020000e+00 -5.290816e-10
-2.010000e+00 -5.364186e-10
-2.000000e+00 -5.438364e-10
-1.990000e+00 -5.513347e-10
-1.980000e+00 -5.589139e-10
-1.970000e+00 -5.665747e-10
-1.960000e+00 -5.743179e-10
-1.950000e+00 -5.821453e-10
-1.940001e+00 -5.900586e-10
-1.930000e+00 -5.980602e-10
-1.920000e+00 -6.061526e-10
-1.910000e+00 -6.143388e-10
-1.900001e+00 -6.226217e-10
-1.890000e+00 -6.310047e-10
-1.880000e+00 -6.394908e-10
-1.870000e+00 -6.480834e-10
-1.860001e+00 -6.567853e-10
-1.850000e+00 -6.655994e-10
-1.840000e+00 -6.745280e-10
-1.830000e+00 -6.835732e-10
-1.820001e+00 -6.927366e-10
-1.810000e+00 -7.020194e-10
-1.800000e+00 -7.114220e-10
-1.790000e+00 -7.209447e-10
-1.780001e+00 -7.305870e-10
-1.770000e+00 -7.403481e-10
-1.760000e+00 -7.502267e-10
-1.750000e+00 -7.602213e-10
-1.740000e+00 -7.703302e-10
-1.730000e+00 -7.805516e-10
-1.720000e+00 -7.908834e-10
-1.710000e+00 -8.013238e-10
-1.700000e+00 -8.118714e-10
-1.690001e+00 -8.225249e-10
-1.680000e+00 -8.332835e-10
-1.670000e+00 -8.441468e-10
-1.660000e+00 -8.551151e-10
-1.650001e+00 -8.661893e-10
-1.640000e+00 -8.773709e-10
-1.630000e+00 -8.886621e-10
-1.620000e+00 -9.000660e-10
-1.610001e+00 -9.115857e-10
-1.600000e+00 -9.232254e-10
-1.590000e+00 -9.349894e-10
-1.580000e+00 -9.468829e-10
-1.570001e+00 -9.589107e-10
-1.560000e+00 -9.710780e-10
-1.550000e+00 -9.833898e-10
-1.540000e+00 -9.958511e-10
-1.530001e+00 -1.008466e-09
-1.520000e+00 -1.021240e-09
-1.510000e+00 -1.034175e-09
-1.500000e+00 -1.047275e-09
-1.490000e+00 -1.060541e-09
-1.480000e+00 -1.073976e-09
-1.470000e+00 -1.087579e-09
-1.460000e+00 -1.101350e-09
-1.450000e+00 -1.115287e-09
-1.440001e+00 -1.129390e-09
-1.430000e+00 -1.143655e-09
-1.420000e+00 -1.158080e-09
-1.410000e+00 -1.172659e-09
-1.400001e+00 -1.187391e-09
-1.390000e+00 -1.202269e-09
-1.380000e+00 -1.217291e-09
-1.370000e+00 -1.232453e-09
-1.360001e+00 -1.247751e-09
-1.350000e+00 -1.263182e-09
-1.340000e+00 -1.278744e-09
-1.330000e+00 -1.294435e-09
-1.320001e+00 -1.310255e-09
-1.310000e+00 -1.326203e-09
-1.300000e+00 -1.342282e-09
-1.290000e+00 -1.358493e-09
-1.280001e+00 -1.374839e-09
-1.270000e+00 -1.391325e-09
-1.260000e+00 -1.407956e-09
-1.250000e+00 -1.424737e-09
-1.240000e+00 -1.441673e-09
-1.230000e+00 -1.458773e-09
-1.220000e+00 -1.476041e-09
-1.210000e+00 -1.493486e-09
-1.200000e+00 -1.511114e-09