-1.200000e+01 0.000000e+00
-1.199000e+01 0.000000e+00
-1.198000e+01 0.000000e+00
-1.197000e+01 0.000000e+00
-1.196000e+01 8.282022e-26
-1.195000e+01 -1.746594e-22
-1.194000e+01 -1.907642e-21
-1.193000e+01 -1.132504e-20
-1.192000e+01 -4.844333e-20
-1.191000e+01 -1.670114e-19
-1.190000e+01 -4.924987e-19
-1.189000e+01 -1.288266e-18
-1.188000e+01 -3.062481e-18
-1.187000e+01 -6.730455e-18
-1.186000e+01 -1.384834e-17
-1.185000e+01 -2.693409e-17
-1.184000e+01 -4.988980e-17
-1.183000e+01 -8.853529e-17
-1.182000e+01 -1.512561e-16
-1.181000e+01 -2.497593e-16
-1.180000e+01 -3.999168e-16
-1.179000e+01 -6.226596e-16
-1.178000e+01 -9.448676e-16
-1.177000e+01 -1.400174e-15
-1.176000e+01 -2.029582e-15
-1.175000e+01 -2.881764e-15
-1.174000e+01 -4.012877e-15
-1.173000e+01 -5.485731e-15
-1.172000e+01 -7.368075e-15
-1.171000e+01 -9.729805e-15
-1.170000e+01 -1.263883e-14
-1.169000e+01 -1.615536e-14
-1.168000e+01 -2.032441e-14
-1.167000e+01 -2.516624e-14
-1.166000e+01 -3.066463e-14
-1.165000e+01 -3.675273e-14
-1.164000e+01 -4.329659e-14
-1.163000e+01 -5.007623e-14
-1.162000e+01 -5.676440e-14
-1.161000e+01 -6.290336e-14
-1.160000e+01 -6.787999e-14
-1.159000e+01 -7.089963e-14
-1.158000e+01 -7.095964e-14
-1.157000e+01 -6.682328e-14
-1.156000e+01 -5.699502e-14
-1.155000e+01 -3.969856e-14
-1.154000e+01 -1.285887e-14
-1.153000e+01 2.591011e-14
-1.152000e+01 7.931067e-14
-1.151000e+01 1.503573e-13
-1.150000e+01 2.423622e-13
-1.149000e+01 3.589073e-13
-1.148000e+01 5.038029e-13
-1.147000e+01 6.810290e-13
-1.146000e+01 8.946592e-13
-1.145000e+01 1.148766e-12
-1.144000e+01 1.447306e-12
-1.143000e+01 1.793982e-12
-1.142000e+01 2.192089e-12
-1.141000e+01 2.644333e-12
-1.140000e+01 3.152639e-12
-1.139000e+01 3.717933e-12
-1.138000e+01 4.339915e-12
-1.137000e+01 5.016815e-12
-1.136000e+01 5.745146e-12
-1.135000e+01 6.519452e-12
-1.134000e+01 7.332056e-12
-1.133000e+01 8.172826e-12
-1.132000e+01 9.028950e-12
-1.131000e+01 9.884738e-12
-1.130000e+01 1.072146e-11
-1.129000e+01 1.151722e-11
-1.128000e+01 1.224692e-11
-1.127000e+01 1.288219e-11
-1.126000e+01 1.339152e-11
-1.125000e+01 1.374037e-11
-1.124000e+01 1.389141e-11
-1.123000e+01 1.380487e-11
-1.122000e+01 1.343894e-11
-1.121000e+01 1.275034e-11
-1.120000e+01 1.169496e-11
-1.119000e+01 1.022865e-11
-1.118000e+01 8.308060e-12
-1.117000e+01 5.891659e-12
-1.116000e+01 2.940806e-12
-1.115000e+01 -5.790606e-13
-1.114000e+01 -4.697166e-12
-1.113000e+01 -9.436073e-12
-1.112000e+01 -1.481031e-11
-1.111000e+01 -2.082496e-11
-1.110000e+01 -2.747429e-11
-1.109000e+01 -3.474036e-11
-1.108000e+01 -4.259172e-11
-1.107000e+01 -5.098221e-11
-1.106000e+01 -5.984983e-11
-1.105000e+01 -6.911582e-11
-1.104000e+01 -7.868398e-11
-1.103000e+01 -8.844005e-11
-1.102000e+01 -9.825162e-11
-1.101000e+01 -1.079681e-10
-1.100000e+01 -1.174212e-10
-1.099000e+01 -1.264258e-10
-1.098000e+01 -1.347807e-10
-1.097000e+01 -1.422708e-10
-1.096000e+01 -1.486687e-10
-1.095000e+01 -1.537375e-10
-1.094000e+01 -1.572332e-10
-1.093000e+01 -1.589085e-10
-1.092000e+01 -1.585161e-10
-1.091000e+01 -1.558134e-10
-1.090000e+01 -1.505664e-10
-1.089000e+01 -1.425547e-10
-1.088000e+01 -1.315768e-10
-1.087000e+01 -1.174550e-10
-1.086000e+01 -1.000408e-10
-1.085000e+01 -7.922064e-11
-1.084000e+01 -5.492091e-11
-1.083000e+01 -2.711330e-11
-1.082000e+01 4.180217e-12
-1.081000e+01 3.888283e-11
-1.080000e+01 7.685869e-11
-1.079000e+01 1.179094e-10
-1.078000e+01 1.617710e-10
-1.077000e+01 2.081122e-10
-1.076000e+01 2.565328e-10
-1.075000e+01 3.065639e-10
-1.074000e+01 3.576684e-10
-1.073000e+01 4.092436e-10
-1.072000e+01 4.606241e-10
-1.071000e+01 5.110866e-10
-1.070000e+01 5.598554e-10
-1.069000e+01 6.061105e-10
-1.068000e+01 6.489952e-10
-1.067000e+01 6.876263e-10
-1.066000e+01 7.211051e-10
-1.065000e+01 7.485295e-10
-1.064000e+01 7.690070e-10
-1.063000e+01 7.816694e-10
-1.062000e+01 7.856866e-10
-1.061000e+01 7.802826e-10
-1.060000e+01 7.647511e-10
-1.059000e+01 7.384715e-10
-1.058000e+01 7.009239e-10
-1.057000e+01 6.517054e-10
-1.056000e+01 5.905441e-10
-1.055000e+01 5.173133e-10
-1.054000e+01 4.320441e-10
-1.053000e+01 3.349361e-10
-1.052000e+01 2.263675e-10
-1.051000e+01 1.069017e-10
-1.050000e+01 -2.270681e-11
-1.049000e+01 -1.615105e-10
-1.048000e+01 -3.083683e-10
-1.047000e+01 -4.619491e-10
-1.046000e+01 -6.207375e-10
-1.045000e+01 -7.830429e-10
-1.044000e+01 -9.470117e-10
-1.043000e+01 -1.110643e-09
-1.042000e+01 -1.271808e-09
-1.041000e+01 -1.428270e-09
-1.040000e+01 -1.577710e-09
-1.039000e+01 -1.717757e-09
-1.038000e+01 -1.846012e-09
-1.037000e+01 -1.960087e-09
-1.036000e+01 -2.057632e-09
-1.035000e+01 -2.136378e-09
-1.034000e+01 -2.194167e-09
-1.033000e+01 -2.228993e-09
-1.032000e+01 -2.239039e-09
-1.031000e+01 -2.222710e-09
-1.030000e+01 -2.178672e-09
-1.029000e+01 -2.105886e-09
-1.028000e+01 -2.003635e-09
-1.027000e+01 -1.871557e-09
-1.026000e+01 -1.709667e-09
-1.025000e+01 -1.518378e-09
-1.024000e+01 -1.298520e-09
-1.023000e+01 -1.051349e-09
-1.022000e+01 -7.785530e-10
-1.021000e+01 -4.822508e-10
-1.020000e+01 -1.649884e-10
-1.019000e+01 1.702759e-10
-1.018000e+01 5.201896e-10
-1.017000e+01 8.810320e-10
-1.016000e+01 1.248747e-09
-1.015000e+01 1.618980e-09
-1.014000e+01 1.987125e-09
-1.013000e+01 2.348375e-09
-1.012000e+01 2.697774e-09
-1.011000e+01 3.030282e-09
-1.010000e+01 3.340838e-09
-1.009000e+01 3.624430e-09
-1.008000e+01 3.876159e-09
-1.007000e+01 4.091322e-09
-1.006000e+01 4.265473e-09
-1.005000e+01 4.394505e-09
-1.004000e+01 4.474717e-09
-1.003000e+01 4.502884e-09
-1.002000e+01 4.476319e-09
-1.001000e+01 4.392939e-09
-1.000000e+01 4.251314e-09
-9.990000e+00 4.050719e-09
-9.980000e+00 3.791174e-09
-9.970000e+00 3.473474e-09
-9.960000e+00 3.099214e-09
-9.950000e+00 2.670796e-09
-9.940001e+00 2.191440e-09
-9.930000e+00 1.665165e-09
-9.920000e+00 1.096774e-09
-9.910000e+00 4.918200e-10
-9.900000e+00 -1.434389e-10
-9.890000e+00 -8.020927e-10
-9.880000e+00 -1.476647e-09
-9.870000e+00 -2.159101e-09
-9.860001e+00 -2.841030e-09
-9.850000e+00 -3.513687e-09
-9.840000e+00 -4.168101e-09
-9.830000e+00 -4.795191e-09
-9.820000e+00 -5.385879e-09
-9.809999e+00 -5.931214e-09
-9.800000e+00 -6.422489e-09
-9.790000e+00 -6.851370e-09
-9.780000e+00 -7.210017e-09
-9.770000e+00 -7.491203e-09
-9.760000e+00 -7.688435e-09
-9.750000e+00 -7.796054e-09
-9.740000e+00 -7.809358e-09
-9.730000e+00 -7.724670e-09
-9.720000e+00 -7.539444e-09
-9.710000e+00 -7.252321e-09
-9.700000e+00 -6.863194e-09
-9.690001e+00 -6.373246e-09
-9.680000e+00 -5.784980e-09
-9.670000e+00 -5.102228e-09
-9.660000e+00 -4.330142e-09
-9.650000e+00 -3.475173e-09
-9.640000e+00 -2.545024e-09
-9.630000e+00 -1.548593e-09
-9.620000e+00 -4.958974e-10
-9.610001e+00 6.020260e-10
-9.600000e+00 1.733226e-09
-9.590000e+00 2.884966e-09
-9.580000e+00 4.043859e-09
-9.570000e+00 5.196019e-09
-9.559999e+00 6.327227e-09
-9.550000e+00 7.423092e-09
-9.540000e+00 8.469238e-09
-9.530000e+00 9.451471e-09
-9.520000e+00 1.035597e-08
-9.510000e+00 1.116948e-08
-9.500000e+00 1.187946e-08
-9.490000e+00 1.247430e-08
-9.480000e+00 1.294342e-08
-9.470000e+00 1.327752e-08
-9.460000e+00 1.346865e-08
-9.450000e+00 1.351036e-08
-9.440001e+00 1.339783e-08
-9.430000e+00 1.312795e-08
-9.420000e+00 1.269941e-08
-9.410000e+00 1.211272e-08
-9.400000e+00 1.137029e-08
-9.390000e+00 1.047644e-08
-9.380000e+00 9.437315e-09
-9.370000e+00 8.260949e-09
-9.360001e+00 6.957139e-09
-9.350000e+00 5.537379e-09
-9.340000e+00 4.014764e-09
-9.330000e+00 2.403851e-09
-9.320000e+00 7.205228e-10
-9.309999e+00 -1.018183e-09
-9.300000e+00 -2.794253e-09
-9.290000e+00 -4.588895e-09
-9.280000e+00 -6.382740e-09
-9.270000e+00 -8.156070e-09
-9.260000e+00 -9.889035e-09
-9.250000e+00 -1.156188e-08
-9.240000e+00 -1.315520e-08
-9.230000e+00 -1.465011e-08
-9.220000e+00 -1.602854e-08
-9.210000e+00 -1.727342e-08
-9.200000e+00 -1.836888e-08
-9.190001e+00 -1.930045e-08
-9.180000e+00 -2.005527e-08
-9.170000e+00 -2.062221e-08
-9.160000e+00 -2.099204e-08
-9.150000e+00 -2.115756e-08
-9.140000e+00 -2.111367e-08
-9.130000e+00 -2.085748e-08
-9.120000e+00 -2.038835e-08
-9.110001e+00 -1.970790e-08
-9.100000e+00 -1.882003e-08
-9.090000e+00 -1.773089e-08
-9.080000e+00 -1.644883e-08
-9.070000e+00 -1.498428e-08
-9.060000e+00 -1.334974e-08
-9.050000e+00 -1.155955e-08
-9.040000e+00 -9.629816e-09
-9.030000e+00 -7.578222e-09
-9.020000e+00 -5.423832e-09
-9.010000e+00 -3.186912e-09
-9.000000e+00 -8.886991e-10
-8.990000e+00 1.448812e-09
-8.980000e+00 3.803105e-09
-8.970000e+00 6.151378e-09
-8.960000e+00 8.470781e-09
-8.950000e+00 1.073866e-08
-8.940001e+00 1.293280e-08
-8.930000e+00 1.503162e-08
-8.920000e+00 1.701445e-08
-8.910000e+00 1.886171e-08
-8.900000e+00 2.055510e-08
-8.890000e+00 2.207782e-08
-8.880000e+00 2.341469e-08
-8.870000e+00 2.455235e-08
-8.860001e+00 2.547934e-08
-8.850000e+00 2.618623e-08
-8.840000e+00 2.666572e-08
-8.830000e+00 2.691268e-08
-8.820000e+00 2.692418e-08
-8.810000e+00 2.669954e-08
-8.800000e+00 2.624029e-08
-8.790000e+00 2.555018e-08
-8.780000e+00 2.463508e-08
-8.770000e+00 2.350295e-08
-8.760000e+00 2.216371e-08
-8.750000e+00 2.062920e-08
-8.740000e+00 1.891295e-08
-8.730000e+00 1.703013e-08
-8.720000e+00 1.499735e-08
-8.710000e+00 1.283251e-08
-8.700000e+00 1.055462e-08
-8.690001e+00 8.183588e-09
-8.680000e+00 5.740084e-09
-8.670000e+00 3.245308e-09
-8.660000e+00 7.208038e-10
-8.650000e+00 -1.811734e-09
-8.640000e+00 -4.330656e-09
-8.630000e+00 -6.814542e-09
-8.620000e+00 -9.242394e-09
-8.610001e+00 -1.159381e-08
-8.600000e+00 -1.384914e-08
-8.590000e+00 -1.598967e-08
-8.580000e+00 -1.799777e-08
-8.570000e+00 -1.985699e-08
-8.560000e+00 -2.155225e-08
-8.550000e+00 -2.306990e-08
-8.540000e+00 -2.439783e-08
-8.530000e+00 -2.552559e-08
-8.520000e+00 -2.644440e-08
-8.510000e+00 -2.714727e-08
-8.500000e+00 -2.762896e-08
-8.490000e+00 -2.788611e-08
-8.480000e+00 -2.791715e-08
-8.470000e+00 -2.772238e-08
-8.460000e+00 -2.730390e-08
-8.450000e+00 -2.666559e-08
-8.440001e+00 -2.581311e-08
-8.430000e+00 -2.475379e-08
-8.420000e+00 -2.349658e-08
-8.410000e+00 -2.205202e-08
-8.400000e+00 -2.043206e-08
-8.390000e+00 -1.865005e-08
-8.380000e+00 -1.672060e-08
-8.370000e+00 -1.465944e-08
-8.360001e+00 -1.248334e-08
-8.350000e+00 -1.020997e-08
-8.340000e+00 -7.857722e-09
-8.330000e+00 -5.445635e-09
-8.320000e+00 -2.993204e-09
-8.310000e+00 -5.202465e-10
-8.300000e+00 1.953251e-09
-8.290000e+00 4.407284e-09
-8.280000e+00 6.821989e-09
-8.270000e+00 9.177792e-09
-8.260000e+00 1.145556e-08
-8.250000e+00 1.363677e-08
-8.240000e+00 1.570363e-08
-8.230000e+00 1.763923e-08
-8.220000e+00 1.942770e-08
-8.210000e+00 2.105430e-08
-8.200000e+00 2.250560e-08
-8.190001e+00 2.376954e-08
-8.180000e+00 2.483559e-08
-8.170000e+00 2.569477e-08
-8.160000e+00 2.633983e-08
-8.150000e+00 2.676525e-08
-8.140000e+00 2.696731e-08
-8.130000e+00 2.694417e-08
-8.120000e+00 2.669584e-08
-8.110001e+00 2.622425e-08
-8.100000e+00 2.553323e-08
-8.090000e+00 2.462846e-08
-8.080000e+00 2.351748e-08
-8.070000e+00 2.220963e-08
-8.060000e+00 2.071595e-08
-8.050000e+00 1.904913e-08
-8.040000e+00 1.722340e-08
-8.030000e+00 1.525441e-08
-8.020000e+00 1.315911e-08
-8.010000e+00 1.095560e-08
-8.000000e+00 8.663001e-09
-7.990000e+00 6.301242e-09
-7.980000e+00 3.890927e-09
-7.970000e+00 1.453137e-09
-7.960000e+00 -9.907595e-10
-7.950000e+00 -3.419296e-09
-7.940000e+00 -5.811104e-09
-7.930000e+00 -8.145111e-09
-7.920000e+00 -1.040074e-08
-7.910000e+00 -1.255808e-08
-7.900000e+00 -1.459810e-08
-7.890000e+00 -1.650283e-08
-7.880000e+00 -1.825548e-08
-7.870000e+00 -1.984067e-08
-7.860000e+00 -2.124452e-08
-7.850000e+00 -2.245481e-08
-7.840000e+00 -2.346108e-08
-7.830000e+00 -2.425476e-08
-7.820000e+00 -2.482919e-08
-7.810000e+00 -2.517976e-08
-7.800000e+00 -2.530386e-08
-7.790000e+00 -2.520099e-08
-7.780000e+00 -2.487270e-08
-7.770000e+00 -2.432261e-08
-7.760000e+00 -2.355633e-08
-7.750000e+00 -2.258144e-08
-7.740000e+00 -2.140737e-08
-7.730000e+00 -2.004535e-08
-7.720000e+00 -1.850826e-08
-7.710000e+00 -1.681053e-08
-7.700000e+00 -1.496796e-08
-7.690000e+00 -1.299761e-08
-7.680000e+00 -1.091758e-08
-7.670000e+00 -8.746884e-09
-7.660000e+00 -6.505257e-09
-7.650000e+00 -4.212946e-09
-7.640000e+00 -1.890540e-09
-7.630000e+00 4.412241e-10
-7.620000e+00 2.761652e-09
-7.610000e+00 5.050278e-09
-7.600000e+00 7.287041e-09
-7.590000e+00 9.452467e-09
-7.580000e+00 1.152783e-08
-7.570000e+00 1.349530e-08
-7.560000e+00 1.533811e-08
-7.550000e+00 1.704067e-08
-7.540000e+00 1.858866e-08
-7.530000e+00 1.996922e-08
-7.520000e+00 2.117094e-08
-7.510000e+00 2.218398e-08
-7.500000e+00 2.300015e-08
-7.490000e+00 2.361290e-08
-7.480000e+00 2.401740e-08
-7.470000e+00 2.421050e-08
-7.460000e+00 2.419079e-08
-7.450000e+00 2.395852e-08
-7.440000e+00 2.351561e-08
-7.430000e+00 2.286557e-08
-7.420000e+00 2.201350e-08
-7.410000e+00 2.096597e-08
-7.400000e+00 1.973095e-08
-7.390000e+00 1.831777e-08
-7.380000e+00 1.673694e-08
-7.370000e+00 1.500016e-08
-7.360000e+00 1.312012e-08
-7.350000e+00 1.111040e-08
-7.340000e+00 8.985429e-09
-7.330000e+00 6.760270e-09
-7.320000e+00 4.450561e-09
-7.310000e+00 2.072370e-09
-7.300000e+00 -3.579199e-10
-7.290000e+00 -2.823737e-09
-7.280000e+00 -5.308439e-09
-7.270000e+00 -7.795431e-09
-7.260000e+00 -1.026829e-08
-7.250000e+00 -1.271085e-08
-7.240000e+00 -1.510738e-08
-7.230000e+00 -1.744261e-08
-7.220000e+00 -1.970190e-08
-7.210000e+00 -2.187128e-08
-7.200000e+00 -2.393760e-08
-7.190000e+00 -2.588861e-08
-7.180000e+00 -2.771302e-08
-7.170000e+00 -2.940058e-08
-7.160000e+00 -3.094218e-08
-7.150000e+00 -3.232991e-08
-7.140000e+00 -3.355710e-08
-7.130000e+00 -3.461838e-08
-7.120000e+00 -3.550976e-08
-7.110000e+00 -3.622860e-08
-7.100000e+00 -3.677369e-08
-7.090000e+00 -3.714528e-08
-7.080000e+00 -3.734503e-08
-7.070000e+00 -3.737606e-08
-7.060000e+00 -3.724293e-08
-7.050000e+00 -3.695161e-08
-7.040000e+00 -3.650943e-08
-7.030000e+00 -3.592509e-08
-7.020000e+00 -3.520854e-08
-7.010000e+00 -3.437096e-08
-7.000000e+00 -3.342466e-08
-6.990000e+00 -3.238299e-08
-6.980000e+00 -3.126025e-08
-6.970000e+00 -3.007156e-08
-6.960000e+00 -2.883277e-08
-6.950000e+00 -2.756029e-08
-6.940000e+00 -2.627096e-08
-6.930000e+00 -2.498193e-08
-6.920000e+00 -2.371048e-08
-6.910000e+00 -2.247387e-08
-6.900000e+00 -2.128918e-08
-6.890000e+00 -2.017315e-08
-6.880000e+00 -1.914202e-08
-6.870000e+00 -1.821135e-08
-6.860000e+00 -1.739588e-08
-6.850000e+00 -1.670941e-08
-6.840000e+00 -1.616458e-08
-6.830000e+00 -1.577282e-08
-6.820000e+00 -1.554418e-08
-6.810000e+00 -1.548721e-08
-6.800000e+00 -1.560892e-08
-6.790000e+00 -1.591466e-08
-6.780000e+00 -1.640806e-08
-6.770000e+00 -1.709102e-08
-6.760000e+00 -1.796364e-08
-6.750000e+00 -1.902428e-08
-6.740000e+00 -2.026952e-08
-6.730000e+00 -2.169424e-08
-6.720000e+00 -2.329166e-08
-6.710000e+00 -2.505344e-08
-6.700000e+00 -2.696975e-08
-6.690000e+00 -2.902942e-08
-6.680000e+00 -3.122005e-08
-6.670000e+00 -3.352820e-08
-6.660000e+00 -3.593950e-08
-6.650000e+00 -3.843887e-08
-6.640000e+00 -4.101067e-08
-6.630000e+00 -4.363894e-08
-6.620000e+00 -4.630754e-08
-6.610000e+00 -4.900038e-08
-6.600000e+00 -5.170163e-08
-6.590000e+00 -5.439585e-08
-6.580000e+00 -5.706826e-08
-6.570000e+00 -5.970485e-08
-6.560000e+00 -6.229258e-08
-6.550000e+00 -6.481951e-08
-6.540000e+00 -6.727493e-08
-6.530000e+00 -6.964952e-08
-6.520000e+00 -7.193539e-08
-6.510000e+00 -7.412616e-08
-6.500000e+00 -7.621709e-08
-6.490000e+00 -7.820498e-08
-6.480000e+00 -8.008832e-08
-6.470000e+00 -8.186715e-08
-6.460000e+00 -8.354311e-08
-6.450000e+00 -8.511932e-08
-6.440000e+00 -8.660034e-08
-6.430000e+00 -8.799208e-08
-6.420000e+00 -8.930161e-08
-6.410000e+00 -9.053712e-08
-6.400000e+00 -9.170773e-08
-6.390000e+00 -9.282333e-08
-6.380000e+00 -9.389445e-08
-6.370000e+00 -9.493205e-08
-6.360000e+00 -9.594739e-08
-6.350000e+00 -9.695184e-08
-6.340000e+00 -9.795671e-08
-6.330000e+00 -9.897312e-08
-6.320000e+00 -1.000118e-07
-6.310000e+00 -1.010831e-07
-6.300000e+00 -1.021966e-07
-6.290000e+00 -1.033612e-07
-6.280000e+00 -1.045850e-07
-6.270000e+00 -1.058752e-07
-6.260000e+00 -1.072381e-07
-6.250000e+00 -1.086789e-07
-6.240000e+00 -1.102018e-07
-6.230000e+00 -1.118102e-07
-6.220000e+00 -1.135063e-07
-6.210000e+00 -1.152915e-07
-6.200000e+00 -1.171662e-07
-6.190000e+00 -1.191302e-07
-6.180000e+00 -1.211825e-07
-6.170000e+00 -1.233213e-07
-6.160000e+00 -1.255446e-07
-6.150000e+00 -1.278498e-07
-6.140000e+00 -1.302342e-07
-6.130000e+00 -1.326948e-07
-6.120000e+00 -1.352287e-07
-6.110000e+00 -1.378329e-07
-6.100000e+00 -1.405048e-07
-6.090000e+00 -1.432420e-07
-6.080000e+00 -1.460424e-07
-6.070000e+00 -1.489046e-07
-6.060000e+00 -1.518275e-07
-6.050000e+00 -1.548107e-07
-6.040000e+00 -1.578544e-07
-6.030000e+00 -1.609592e-07
-6.020000e+00 -1.641267e-07
-6.010000e+00 -1.673587e-07
-6.000000e+00 -1.706579e-07
-5.990000e+00 -1.740272e-07
-5.980000e+00 -1.774702e-07
-5.970000e+00 -1.809906e-07
-5.960000e+00 -1.845925e-07
-5.950000e+00 -1.882801e-07
-5.940000e+00 -1.920579e-07
-5.930000e+00 -1.959299e-07
-5.920000e+00 -1.999004e-07
-5.910000e+00 -2.039730e-07
-5.900000e+00 -2.081512e-07
-5.890000e+00 -2.124380e-07
-5.880000e+00 -2.168358e-07
-5.870000e+00 -2.213463e-07
-5.860000e+00 -2.259705e-07
-5.850000e+00 -2.307088e-07
-5.840000e+00 -2.355606e-07
-5.830000e+00 -2.405247e-07
-5.820000e+00 -2.455991e-07
-5.810000e+00 -2.507808e-07
-5.800000e+00 -2.560664e-07
-5.790000e+00 -2.614518e-07
-5.780000e+00 -2.669322e-07
-5.770000e+00 -2.725025e-07
-5.760000e+00 -2.781572e-07
-5.750000e+00 -2.838907e-07
-5.740000e+00 -2.896973e-07
-5.730000e+00 -2.955711e-07
-5.720000e+00 -3.015068e-07
-5.710000e+00 -3.074995e-07
-5.700000e+00 -3.135447e-07
-5.690000e+00 -3.196385e-07
-5.680000e+00 -3.257781e-07
-5.670000e+00 -3.319614e-07
-5.660000e+00 -3.381878e-07
-5.650000e+00 -3.444572e-07
-5.640000e+00 -3.507716e-07
-5.630000e+00 -3.571335e-07
-5.620000e+00 -3.635472e-07
-5.610000e+00 -3.700183e-07
-5.600000e+00 -3.765537e-07
-5.590000e+00 -3.831614e-07
-5.580000e+00 -3.898508e-07
-5.570000e+00 -3.966324e-07
-5.560000e+00 -4.035174e-07
-5.550000e+00 -4.105181e-07
-5.540000e+00 -4.176475e-07
-5.530000e+00 -4.249187e-07
-5.520000e+00 -4.323454e-07
-5.510000e+00 -4.399412e-07
-5.500000e+00 -4.477196e-07
-5.490000e+00 -4.556936e-07
-5.480000e+00 -4.638756e-07
-5.470000e+00 -4.722772e-07
-5.460000e+00 -4.809090e-07
-5.450000e+00 -4.897802e-07
-5.440000e+00 -4.988986e-07
-5.430000e+00 -5.082705e-07
-5.420000e+00 -5.179006e-07
-5.410000e+00 -5.277914e-07
-5.400000e+00 -5.379439e-07
-5.390000e+00 -5.483571e-07
-5.380000e+00 -5.590279e-07
-5.370000e+00 -5.699515e-07
-5.360000e+00 -5.811214e-07
-5.350000e+00 -5.925291e-07
-5.340000e+00 -6.041648e-07
-5.330000e+00 -6.160172e-07
-5.320000e+00 -6.280738e-07
-5.310000e+00 -6.403214e-07
-5.300000e+00 -6.527459e-07
-5.290000e+00 -6.653329e-07
-5.280000e+00 -6.780680e-07
-5.270000e+00 -6.909367e-07
-5.260000e+00 -7.039256e-07
-5.250000e+00 -7.170215e-07
-5.240000e+00 -7.302128e-07
-5.230000e+00 -7.434892e-07
-5.220000e+00 -7.568420e-07
-5.210000e+00 -7.702648e-07
-5.200000e+00 -7.837529e-07
-5.190000e+00 -7.973045e-07
-5.180000e+00 -8.109199e-07
-5.170000e+00 -8.246024e-07
-5.160000e+00 -8.383578e-07
-5.150000e+00 -8.521947e-07
-5.140000e+00 -8.661245e-07
-5.130000e+00 -8.801613e-07
-5.120000e+00 -8.943215e-07
-5.110000e+00 -9.086240e-07
-5.100000e+00 -9.230902e-07
-5.090000e+00 -9.377428e-07
-5.080000e+00 -9.526066e-07
-5.070000e+00 -9.677075e-07
-5.060000e+00 -9.830727e-07
-5.050000e+00 -9.987293e-07
-5.040000e+00 -1.014706e-06
-5.030000e+00 -1.031029e-06
-5.020000e+00 -1.047726e-06
-5.010000e+00 -1.064823e-06
-5.000000e+00 -1.082345e-06
-4.990000e+00 -1.100315e-06
-4.980000e+00 -1.118753e-06
-4.970000e+00 -1.137677e-06
-4.960000e+00 -1.157105e-06
-4.950000e+00 -1.177047e-06
-4.940000e+00 -1.197516e-06
-4.930000e+00 -1.218515e-06
-4.920000e+00 -1.240050e-06
-4.910000e+00 -1.262121e-06
-4.900000e+00 -1.284723e-06
-4.890000e+00 -1.307850e-06
-4.880000e+00 -1.331493e-06
-4.870000e+00 -1.355640e-06
-4.860000e+00 -1.380275e-06
-4.850000e+00 -1.405381e-06
-4.840000e+00 -1.430940e-06
-4.830000e+00 -1.456931e-06
-4.820000e+00 -1.483332e-06
-4.810000e+00 -1.510120e-06
-4.800000e+00 -1.537274e-06
-4.790000e+00 -1.564771e-06
-4.780000e+00 -1.592589e-06
-4.770000e+00 -1.620709e-06
-4.760000e+00 -1.649112e-06
-4.750000e+00 -1.677782e-06
-4.740000e+00 -1.706705e-06
-4.730000e+00 -1.735870e-06
-4.720000e+00 -1.765269e-06
-4.710000e+00 -1.794899e-06
-4.700000e+00 -1.824758e-06
-4.690000e+00 -1.854850e-06
-4.680000e+00 -1.885182e-06
-4.670000e+00 -1.915766e-06
-4.660000e+00 -1.946617e-06
-4.650000e+00 -1.977752e-06
-4.640000e+00 -2.009196e-06
-4.630000e+00 -2.040974e-06
-4.620000e+00 -2.073114e-06
-4.610000e+00 -2.105648e-06
-4.600000e+00 -2.138610e-06
-4.590000e+00 -2.172036e-06
-4.580000e+00 -2.205962e-06
-4.570000e+00 -2.240427e-06
-4.560000e+00 -2.275469e-06
-4.550000e+00 -2.311125e-06
-4.540000e+00 -2.347433e-06
-4.530000e+00 -2.384428e-06
-4.520000e+00 -2.422145e-06
-4.510000e+00 -2.460615e-06
-4.500000e+00 -2.499868e-06
-4.490000e+00 -2.539929e-06
-4.480000e+00 -2.580821e-06
-4.470000e+00 -2.622562e-06
-4.460000e+00 -2.665167e-06
-4.450000e+00 -2.708647e-06
-4.440000e+00 -2.753008e-06
-4.430000e+00 -2.798252e-06
-4.420000e+00 -2.844377e-06
-4.410000e+00 -2.891377e-06
-4.400000e+00 -2.939242e-06
-4.390000e+00 -2.987959e-06
-4.380000e+00 -3.037510e-06
-4.370000e+00 -3.087877e-06
-4.360000e+00 -3.139038e-06
-4.350000e+00 -3.190970e-06
-4.340000e+00 -3.243647e-06
-4.330000e+00 -3.297044e-06
-4.320000e+00 -3.351136e-06
-4.310000e+00 -3.405896e-06
-4.300000e+00 -3.461302e-06
-4.290000e+00 -3.517329e-06
-4.280000e+00 -3.573959e-06
-4.270000e+00 -3.631173e-06
-4.260000e+00 -3.688956e-06
-4.250000e+00 -3.747298e-06
-4.240000e+00 -3.806191e-06
-4.230000e+00 -3.865632e-06
-4.220000e+00 -3.925624e-06
-4.210000e+00 -3.986171e-06
-4.200000e+00 -4.047286e-06
-4.190000e+00 -4.108983e-06
-4.180000e+00 -4.171284e-06
-4.170000e+00 -4.234212e-06
-4.160000e+00 -4.297797e-06
-4.150000e+00 -4.362073e-06
-4.140000e+00 -4.427075e-06
-4.130000e+00 -4.492842e-06
-4.120000e+00 -4.559419e-06
-4.110000e+00 -4.626848e-06
-4.100000e+00 -4.695177e-06
-4.090000e+00 -4.764451e-06
-4.080000e+00 -4.834719e-06
-4.070000e+00 -4.906028e-06
-4.060000e+00 -4.978423e-06
-4.050000e+00 -5.051950e-06
-4.040000e+00 -5.126652e-06
-4.030000e+00 -5.202570e-06
-4.020000e+00 -5.279740e-06
-4.010000e+00 -5.358196e-06
-4.000000e+00 -5.437969e-06
-3.990000e+00 -5.519084e-06
-3.980000e+00 -5.601565e-06
-3.970000e+00 -5.685427e-06
-3.960000e+00 -5.770683e-06
-3.950000e+00 -5.857344e-06
-3.940001e+00 -5.945411e-06
-3.930000e+00 -6.034885e-06
-3.920000e+00 -6.125762e-06
-3.910000e+00 -6.218033e-06
-3.900001e+00 -6.311688e-06
-3.890000e+00 -6.406712e-06
-3.880000e+00 -6.503090e-06
-3.870000e+00 -6.600803e-06
-3.860001e+00 -6.699833e-06
-3.850000e+00 -6.800158e-06
-3.840000e+00 -6.901760e-06
-3.830000e+00 -7.004619e-06
-3.820001e+00 -7.108717e-06
-3.810000e+00 -7.214037e-06
-3.800000e+00 -7.320567e-06
-3.790000e+00 -7.428293e-06
-3.780000e+00 -7.537210e-06
-3.770000e+00 -7.647312e-06
-3.760000e+00 -7.758598e-06
-3.750000e+00 -7.871075e-06
-3.740000e+00 -7.984748e-06
-3.730000e+00 -8.099631e-06
-3.720000e+00 -8.215743e-06
-3.710000e+00 -8.333106e-06
-3.700000e+00 -8.451743e-06
-3.690001e+00 -8.571688e-06
-3.680000e+00 -8.692975e-06
-3.670000e+00 -8.815639e-06
-3.660000e+00 -8.939723e-06
-3.650001e+00 -9.065271e-06
-3.640000e+00 -9.192329e-06
-3.630000e+00 -9.320943e-06
-3.620000e+00 -9.451161e-06
-3.610001e+00 -9.583033e-06
-3.600000e+00 -9.716607e-06
-3.590000e+00 -9.851929e-06
-3.580000e+00 -9.989049e-06
-3.570001e+00 -1.012801e-05
-3.560000e+00 -1.026885e-05
-3.550000e+00 -1.041161e-05
-3.540000e+00 -1.055633e-05
-3.530000e+00 -1.070304e-05
-3.520000e+00 -1.085177e-05
-3.510000e+00 -1.100254e-05
-3.500000e+00 -1.115537e-05
-3.490000e+00 -1.131028e-05
-3.480000e+00 -1.146728e-05
-3.470000e+00 -1.162638e-05
-3.460000e+00 -1.178757e-05
-3.450000e+00 -1.195087e-05
-3.440001e+00 -1.211627e-05
-3.430000e+00 -1.228375e-05
-3.420000e+00 -1.245332e-05
-3.410000e+00 -1.262496e-05
-3.400001e+00 -1.279865e-05
-3.390000e+00 -1.297439e-05
-3.380000e+00 -1.315217e-05
-3.370000e+00 -1.333196e-05
-3.360001e+00 -1.351376e-05
-3.350000e+00 -1.369755e-05
-3.340000e+00 -1.388334e-05
-3.330000e+00 -1.407110e-05
-3.320001e+00 -1.426084e-05
-3.310000e+00 -1.445255e-05
-3.300000e+00 -1.464625e-05
-3.290000e+00 -1.484194e-05
-3.280000e+00 -1.503963e-05
-3.270000e+00 -1.523934e-05
-3.260000e+00 -1.544108e-05
-3.250000e+00 -1.564490e-05
-3.240000e+00 -1.585081e-05
-3.230000e+00 -1.605885e-05
-3.220000e+00 -1.626906e-05
-3.210000e+00 -1.648148e-05
-3.200000e+00 -1.669616e-05
-3.190001e+00 -1.691315e-05
-3.180000e+00 -1.713249e-05
-3.170000e+00 -1.735425e-05
-3.160000e+00 -1.757847e-05
-3.150001e+00 -1.780521e-05
-3.140000e+00 -1.803454e-05
-3.130000e+00 -1.826649e-05
-3.120000e+00 -1.850114e-05
-3.110001e+00 -1.873852e-05
-3.100000e+00 -1.897870e-05
-3.090000e+00 -1.922172e-05
-3.080000e+00 -1.946764e-05
-3.070001e+00 -1.971648e-05
-3.060000e+00 -1.996829e-05
-3.050000e+00 -2.022312e-05
-3.040000e+00 -2.048098e-05
-3.030000e+00 -2.074190e-05
-3.020000e+00 -2.100592e-05
-3.010000e+00 -2.127304e-05
-3.000000e+00 -2.154329e-05
-2.990000e+00 -2.181667e-05
-2.980000e+00 -2.209319e-05
-2.970000e+00 -2.237286e-05
-2.960000e+00 -2.265568e-05
-2.950000e+00 -2.294164e-05
-2.940001e+00 -2.323075e-05
-2.930000e+00 -2.352299e-05
-2.920000e+00 -2.381837e-05
-2.910000e+00 -2.411686e-05
-2.900001e+00 -2.441848e-05
-2.890000e+00 -2.472321e-05
-2.880000e+00 -2.503103e-05
-2.870000e+00 -2.534197e-05
-2.860001e+00 -2.565600e-05
-2.850000e+00 -2.597312e-05
-2.840000e+00 -2.629335e-05
-2.830000e+00 -2.661668e-05
-2.820001e+00 -2.694313e-05
-2.810000e+00 -2.727270e-05
-2.800000e+00 -2.760541e-05
-2.790000e+00 -2.794127e-05
-2.780000e+00 -2.828032e-05
-2.770000e+00 -2.862257e-05
-2.760000e+00 -2.896806e-05
-2.750000e+00 -2.931681e-05
-2.740000e+00 -2.966885e-05
-2.730000e+00 -3.002424e-05
-2.720000e+00 -3.038299e-05
-2.710000e+00 -3.074517e-05
-2.700000e+00 -3.111080e-05
-2.690001e+00 -3.147993e-05
-2.680000e+00 -3.185259e-05
-2.670000e+00 -3.222885e-05
-2.660000e+00 -3.260873e-05
-2.650001e+00 -3.299228e-05
-2.640000e+00 -3.337955e-05
-2.630000e+00 -3.377056e-05
-2.620000e+00 -3.416536e-05
-2.610001e+00 -3.456399e-05
-2.600000e+00 -3.496647e-05
-2.590000e+00 -3.537283e-05
-2.580000e+00 -3.578312e-05
-2.570001e+00 -3.619734e-05
-2.560000e+00 -3.661553e-05
-2.550000e+00 -3.703769e-05
-2.540000e+00 -3.746387e-05
-2.530001e+00 -3.789406e-05
-2.520000e+00 -3.832828e-05
-2.510000e+00 -3.876654e-05
-2.500000e+00 -3.920887e-05
-2.490000e+00 -3.965525e-05
-2.480000e+00 -4.010570e-05
-2.470000e+00 -4.056024e-05
-2.460000e+00 -4.101887e-05
-2.450000e+00 -4.148159e-05
-2.440001e+00 -4.194842e-05
-2.430000e+00 -4.241938e-05
-2.420000e+00 -4.289447e-05
-2.410000e+00 -4.337370e-05
-2.400001e+00 -4.385710e-05
-2.390000e+00 -4.434468e-05
-2.380000e+00 -4.483647e-05
-2.370000e+00 -4.533248e-05
-2.360001e+00 -4.583274e-05
-2.350000e+00 -4.633729e-05
-2.340000e+00 -4.684615e-05
-2.330000e+00 -4.735936e-05
-2.320001e+00 -4.787696e-05
-2.310000e+00 -4.839897e-05
-2.300000e+00 -4.892545e-05
-2.290000e+00 -4.945643e-05
-2.280001e+00 -4.999196e-05
-2.270000e+00 -5.053207e-05
-2.260000e+00 -5.107681e-05
-2.250000e+00 -5.162623e-05
-2.240000e+00 -5.218035e-05
-2.230000e+00 -5.273923e-05
-2.220000e+00 -5.330291e-05
-2.210000e+00 -5.387142e-05
-2.200000e+00 -5.444478e-05
-2.190001e+00 -5.502305e-05
-2.180000e+00 -5.560625e-05
-2.170000e+00 -5.619439e-05
-2.160000e+00 -5.678751e-05
-2.150001e+00 -5.738561e-05
-2.140000e+00 -5.798872e-05
-2.130000e+00 -5.859685e-05
-2.120000e+00 -5.921000e-05
-2.110001e+00 -5.982817e-05
-2.100000e+00 -6.045137e-05
-2.090000e+00 -6.107959e-05
-2.080000e+00 -6.171283e-05
-2.070001e+00 -6.235107e-05
-2.060000e+00 -6.299431e-05
-2.050000e+00 -6.364252e-05
-2.040000e+00 -6.429572e-05
-2.030001e+00 -6.495387e-05
-2.020000e+00 -6.561696e-05
-2.010000e+00 -6.628496e-05
-2.000000e+00 -6.695788e-05
-1.990000e+00 -6.763569e-05
-1.980000e+00 -6.831839e-05
-1.970000e+00 -6.900598e-05
-1.960000e+00 -6.969843e-05
-1.950000e+00 -7.039575e-05
-1.940001e+00 -7.109794e-05
-1.930000e+00 -7.180499e-05
-1.920000e+00 -7.251692e-05
-1.910000e+00 -7.323374e-05
-1.900001e+00 -7.395545e-05
-1.890000e+00 -7.468207e-05
-1.880000e+00 -7.541363e-05
-1.870000e+00 -7.615016e-05
-1.860001e+00 -7.689167e-05
-1.850000e+00 -7.763819e-05
-1.840000e+00 -7.838975e-05
-1.830000e+00 -7.914640e-05
-1.820001e+00 -7.990815e-05
-1.810000e+00 -8.067505e-05
-1.800000e+00 -8.144714e-05
-1.790000e+00 -8.222445e-05
-1.780001e+00 -8.300701e-05
-1.770000e+00 -8.379485e-05
-1.760000e+00 -8.458802e-05
-1.750000e+00 -8.538653e-05
-1.740000e+00 -8.619042e-05
-1.730000e+00 -8.699971e-05
-1.720000e+00 -8.781441e-05
-1.710000e+00 -8.863454e-05
-1.700000e+00 -8.946013e-05
-1.690001e+00 -9.029117e-05
-1.680000e+00 -9.112767e-05
-1.670000e+00 -9.196961e-05
-1.660000e+00 -9.281701e-05
-1.650001e+00 -9.366987e-05
-1.640000e+00 -9.452815e-05
-1.630000e+00 -9.539184e-05
-1.620000e+00 -9.626093e-05
-1.610001e+00 -9.713539e-05
-1.600000e+00 -9.801521e-05
-1.590000e+00 -9.890035e-05
-1.580000e+00 -9.979076e-05
-1.570001e+00 -1.006865e-04
-1.560000e+00 -1.015874e-04
-1.550000e+00 -1.024935e-04
-1.540000e+00 -1.034048e-04
-1.530001e+00 -1.043213e-04
-1.520000e+00 -1.052428e-04
-1.510000e+00 -1.061695e-04
-1.500000e+00 -1.071012e-04
-1.490000e+00 -1.080380e-04
-1.480000e+00 -1.089798e-04
-1.470000e+00 -1.099267e-04
-1.460000e+00 -1.108785e-04
-1.450000e+00 -1.118354e-04
-1.440001e+00 -1.127972e-04
-1.430000e+00 -1.137640e-04
-1.420000e+00 -1.147358e-04
-1.410000e+00 -1.157126e-04
-1.400001e+00 -1.166944e-04
-1.390000e+00 -1.176812e-04
-1.380000e+00 -1.186730e-04
-1.370000e+00 -1.196698e-04
-1.360001e+00 -1.206716e-04
-1.350000e+00 -1.216785e-04
-1.340000e+00 -1.226904e-04
-1.330000e+00 -1.237073e-04
-1.320001e+00 -1.247293e-04
-1.310000e+00 -1.257563e-04
-1.300000e+00 -1.267883e-04
-1.290000e+00 -1.278253e-04
-1.280001e+00 -1.288674e-04
-1.270000e+00 -1.299144e-04
-1.260000e+00 -1.309664e-04
-1.250000e+00 -1.320234e-04
-1.240000e+00 -1.330852e-04
-1.230000e+00 -1.341519e-04
-1.220000e+00 -1.352234e-04