-1.200000e+01 0.000000e+00
-1.199000e+01 0.000000e+00
-1.198000e+01 0.000000e+00
-1.197000e+01 0.000000e+00
-1.196000e+01 0.000000e+00
-1.195000e+01 0.000000e+00
-1.194000e+01 0.000000e+00
-1.193000e+01 -5.130891e-39
-1.192000e+01 -8.654479e-38
-1.191000e+01 -7.781487e-37
-1.190000e+01 -4.946412e-36
-1.189000e+01 -2.489769e-35
-1.188000e+01 -1.054598e-34
-1.187000e+01 -3.903319e-34
-1.186000e+01 -1.294955e-33
-1.185000e+01 -3.921720e-33
-1.184000e+01 -1.099085e-32
-1.183000e+01 -2.880749e-32
-1.182000e+01 -7.120910e-32
-1.181000e+01 -1.671338e-31
-1.180000e+01 -3.745532e-31
-1.179000e+01 -8.052000e-31
-1.178000e+01 -1.667020e-30
-1.177000e+01 -3.334879e-30
-1.176000e+01 -6.465065e-30
-1.175000e+01 -1.217600e-29
-1.174000e+01 -2.232659e-29
-1.173000e+01 -3.993537e-29
-1.172000e+01 -6.979828e-29
-1.171000e+01 -1.193808e-28
-1.170000e+01 -2.000813e-28
-1.169000e+01 -3.289875e-28
-1.168000e+01 -5.312736e-28
-1.167000e+01 -8.434152e-28
-1.166000e+01 -1.317427e-27
-1.165000e+01 -2.026352e-27
-1.164000e+01 -3.071256e-27
-1.163000e+01 -4.589979e-27
-1.162000e+01 -6.767905e-27
-1.161000e+01 -9.850970e-27
-1.160000e+01 -1.416108e-26
-1.159000e+01 -2.011400e-26
-1.158000e+01 -2.823974e-26
-1.157000e+01 -3.920507e-26
-1.156000e+01 -5.383783e-26
-1.155000e+01 -7.315222e-26
-1.154000e+01 -9.837389e-26
-1.153000e+01 -1.309635e-25
-1.152000e+01 -1.726367e-25
-1.151000e+01 -2.253780e-25
-1.150000e+01 -2.914454e-25
-1.149000e+01 -3.733633e-25
-1.148000e+01 -4.738992e-25
-1.147000e+01 -5.960187e-25
-1.146000e+01 -7.428183e-25
-1.145000e+01 -9.174269e-25
-1.144000e+01 -1.122876e-24
-1.143000e+01 -1.361934e-24
-1.142000e+01 -1.636899e-24
-1.141000e+01 -1.949357e-24
-1.140000e+01 -2.299896e-24
-1.139000e+01 -2.687789e-24
-1.138000e+01 -3.110645e-24
-1.137000e+01 -3.564045e-24
-1.136000e+01 -4.041160e-24
-1.135000e+01 -4.532390e-24
-1.134000e+01 -5.025027e-24
-1.133000e+01 -5.502970e-24
-1.132000e+01 -5.946530e-24
-1.131000e+01 -6.332332e-24
-1.130000e+01 -6.633375e-24
-1.129000e+01 -6.819257e-24
-1.128000e+01 -6.856610e-24
-1.127000e+01 -6.709772e-24
-1.126000e+01 -6.341711e-24
-1.125000e+01 -5.715223e-24
-1.124000e+01 -4.794413e-24
-1.123000e+01 -3.546435e-24
-1.122000e+01 -1.943491e-24
-1.121000e+01 3.496748e-26
-1.120000e+01 2.399882e-24
-1.119000e+01 5.150155e-24
-1.118000e+01 8.270244e-24
-1.117000e+01 1.172787e-23
-1.116000e+01 1.547201e-23
-1.115000e+01 1.943131e-23
-1.114000e+01 2.351297e-23
-1.113000e+01 2.760245e-23
-1.112000e+01 3.156399e-23
-1.111000e+01 3.524206e-23
-1.110000e+01 3.846402e-23
-1.109000e+01 4.104381e-23
-1.108000e+01 4.278710e-23
-1.107000e+01 4.349734e-23
-1.106000e+01 4.298319e-23
-1.105000e+01 4.106681e-23
-1.104000e+01 3.759296e-23
-1.103000e+01 3.243865e-23
-1.102000e+01 2.552285e-23
-1.101000e+01 1.681598e-23
-1.100000e+01 6.348711e-24
-1.099000e+01 -5.780544e-24
-1.098000e+01 -1.939990e-23
-1.097000e+01 -3.426052e-23
-1.096000e+01 -5.003597e-23
-1.095000e+01 -6.632479e-23
-1.094000e+01 -8.265659e-23
-1.093000e+01 -9.850204e-23
-1.092000e+01 -1.132866e-22
-1.091000e+01 -1.264081e-22
-1.090000e+01 -1.372578e-22
-1.089000e+01 -1.452442e-22
-1.088000e+01 -1.498193e-22
-1.087000e+01 -1.505061e-22
-1.086000e+01 -1.469256e-22
-1.085000e+01 -1.388236e-22
-1.084000e+01 -1.260937e-22
-1.083000e+01 -1.087971e-22
-1.082000e+01 -8.717594e-23
-1.081000e+01 -6.165970e-23
-1.080000e+01 -3.286358e-23
-1.079000e+01 -1.576847e-24
-1.078000e+01 3.125842e-23
-1.077000e+01 6.457912e-23
-1.076000e+01 9.724281e-23
-1.075000e+01 1.280786e-22
-1.074000e+01 1.559453e-22
-1.073000e+01 1.797958e-22
-1.072000e+01 1.987433e-22
-1.071000e+01 2.121274e-22
-1.070000e+01 2.195762e-22
-1.069000e+01 2.210591e-22
-1.068000e+01 2.169277e-22
-1.067000e+01 2.079392e-22
-1.066000e+01 1.952588e-22
-1.065000e+01 1.804377e-22
-1.064000e+01 1.653644e-22
-1.063000e+01 1.521864e-22
-1.062000e+01 1.432035e-22
-1.061000e+01 1.407328e-22
-1.060000e+01 1.469492e-22
-1.059000e+01 1.637056e-22
-1.058000e+01 1.923396e-22
-1.057000e+01 2.334752e-22
-1.056000e+01 2.868306e-22
-1.055000e+01 3.510419e-22
-1.054000e+01 4.235175e-22
-1.053000e+01 5.003344e-22
-1.052000e+01 5.761919e-22
-1.051000e+01 6.444337e-22
-1.050000e+01 6.971496e-22
-1.049000e+01 7.253672e-22
-1.048000e+01 7.193371e-22
-1.047000e+01 6.689169e-22
-1.046000e+01 5.640477e-22
-1.045000e+01 3.953194e-22
-1.044000e+01 1.546080e-22
-1.043000e+01 -1.642307e-22
-1.042000e+01 -5.646381e-22
-1.041000e+01 -1.046630e-21
-1.040000e+01 -1.606110e-21
-1.039000e+01 -2.234254e-21
-1.038000e+01 -2.917019e-21
-1.037000e+01 -3.634804e-21
-1.036000e+01 -4.362317e-21
-1.035000e+01 -5.068687e-21
-1.034000e+01 -5.717850e-21
-1.033000e+01 -6.269245e-21
-1.032000e+01 -6.678834e-21
-1.031000e+01 -6.900444e-21
-1.030000e+01 -6.887447e-21
-1.029000e+01 -6.594734e-21
-1.028000e+01 -5.980935e-21
-1.027000e+01 -5.010869e-21
-1.026000e+01 -3.658097e-21
-1.025000e+01 -1.907525e-21
-1.024000e+01 2.420702e-22
-1.023000e+01 2.775703e-21
-1.022000e+01 5.660157e-21
-1.021000e+01 8.842426e-21
-1.020000e+01 1.224872e-20
-1.019000e+01 1.578419e-20
-1.018000e+01 1.933351e-20
-1.017000e+01 2.276231e-20
-1.016000e+01 2.591969e-20
-1.015000e+01 2.864168e-20
-1.014000e+01 3.075583e-20
-1.013000e+01 3.208667e-20
-1.012000e+01 3.246220e-20
-1.011000e+01 3.172108e-20
-1.010000e+01 2.972046e-20
-1.009000e+01 2.634407e-20
-1.008000e+01 2.151052e-20
-1.007000e+01 1.518125e-20
-1.006000e+01 7.367984e-21
-1.005000e+01 -1.860822e-21
-1.004000e+01 -1.237483e-20
-1.003000e+01 -2.397835e-20
-1.002000e+01 -3.640898e-20
-1.001000e+01 -4.933846e-20
-1.000000e+01 -6.237629e-20
-9.990000e+00 -7.507608e-20
-9.980000e+00 -8.694468e-20
-9.970000e+00 -9.745445e-20
-9.960000e+00 -1.060581e-19
-9.950000e+00 -1.122061e-19
-9.940001e+00 -1.153665e-19
-9.930000e+00 -1.150460e-19
-9.920000e+00 -1.108129e-19
-9.910000e+00 -1.023193e-19
-9.900000e+00 -8.932431e-20
-9.890000e+00 -7.171471e-20
-9.880000e+00 -4.952415e-20
-9.870000e+00 -2.294890e-20
-9.860001e+00 7.640348e-21
-9.850000e+00 4.169176e-20
-9.840000e+00 7.847131e-20
-9.830000e+00 1.170681e-19
-9.820000e+00 1.564066e-19
-9.809999e+00 1.952660e-19
-9.800000e+00 2.323071e-19
-9.790000e+00 2.661052e-19
-9.780000e+00 2.951911e-19
-9.770000e+00 3.180957e-19
-9.760000e+00 3.334016e-19
-9.750000e+00 3.397960e-19
-9.740000e+00 3.361261e-19
-9.730000e+00 3.214550e-19
-9.720000e+00 2.951143e-19
-9.710000e+00 2.567534e-19
-9.700000e+00 2.063826e-19
-9.690001e+00 1.444069e-19
-9.680000e+00 7.165047e-20
-9.670000e+00 -1.063146e-20
-9.660000e+00 -1.007545e-19
-9.650000e+00 -1.966220e-19
-9.640000e+00 -2.957564e-19
-9.630000e+00 -3.953485e-19
-9.620000e+00 -4.923201e-19
-9.610001e+00 -5.834023e-19
-9.600000e+00 -6.652273e-19
-9.590000e+00 -7.344305e-19
-9.580000e+00 -7.877615e-19
-9.570000e+00 -8.222006e-19
-9.559999e+00 -8.350763e-19
-9.550000e+00 -8.241815e-19
-9.540000e+00 -7.878825e-19
-9.530000e+00 -7.252178e-19
-9.520000e+00 -6.359822e-19
-9.510000e+00 -5.207911e-19
-9.500000e+00 -3.811229e-19
-9.490000e+00 -2.193355e-19
-9.480000e+00 -3.865439e-20
-9.470000e+00 1.568690e-19
-9.460000e+00 3.624296e-19
-9.450000e+00 5.725715e-19
-9.440001e+00 7.813193e-19
-9.430000e+00 9.823363e-19
-9.420000e+00 1.169105e-18
-9.410000e+00 1.335125e-18
-9.400000e+00 1.474126e-18
-9.390000e+00 1.580282e-18
-9.380000e+00 1.648432e-18
-9.370000e+00 1.674281e-18
-9.360001e+00 1.654593e-18
-9.350000e+00 1.587359e-18
-9.340000e+00 1.471929e-18
-9.330000e+00 1.309111e-18
-9.320000e+00 1.101223e-18
-9.309999e+00 8.520988e-19
-9.300000e+00 5.670383e-19
-9.290000e+00 2.527123e-19
-9.280000e+00 -8.299009e-20
-9.270000e+00 -4.311624e-19
-9.260000e+00 -7.821266e-19
-9.250000e+00 -1.125718e-18
-9.240000e+00 -1.451601e-18
-9.230000e+00 -1.749607e-18
-9.220000e+00 -2.010083e-18
-9.210000e+00 -2.224234e-18
-9.200000e+00 -2.384456e-18
-9.190001e+00 -2.484643e-18
-9.180000e+00 -2.520444e-18
-9.170000e+00 -2.489480e-18
-9.160000e+00 -2.391493e-18
-9.150000e+00 -2.228423e-18
-9.140000e+00 -2.004406e-18
-9.130000e+00 -1.725702e-18
-9.120000e+00 -1.400519e-18
-9.110001e+00 -1.038775e-18
-9.100000e+00 -6.517775e-19
-9.090000e+00 -2.518350e-19
-9.080000e+00 1.481864e-19
-9.070000e+00 5.353452e-19
-9.060000e+00 8.971316e-19
-9.050000e+00 1.221978e-18
-9.040000e+00 1.499758e-18
-9.030000e+00 1.722238e-18
-9.020000e+00 1.883487e-18
-9.010000e+00 1.980192e-18
-9.000000e+00 2.011889e-18
-8.990000e+00 1.981078e-18
-8.980000e+00 1.893216e-18
-8.970000e+00 1.756577e-18
-8.960000e+00 1.581984e-18
-8.950000e+00 1.382402e-18
-8.940001e+00 1.172417e-18
-8.930000e+00 9.675961e-19
-8.920000e+00 7.837645e-19
-8.910000e+00 6.362155e-19
-8.900000e+00 5.388834e-19
-8.890000e+00 5.035141e-19
-8.880000e+00 5.388676e-19
-8.870000e+00 6.499914e-19
-8.860001e+00 8.376015e-19
-8.850000e+00 1.097607e-18
-8.840000e+00 1.420812e-18
-8.830000e+00 1.792826e-18
-8.820000e+00 2.194202e-18
-8.810000e+00 2.600819e-18
-8.800000e+00 2.984524e-18
-8.790000e+00 3.314013e-18
-8.780000e+00 3.555959e-18
-8.770000e+00 3.676350e-18
-8.760000e+00 3.642002e-18
-8.750000e+00 3.422215e-18
-8.740000e+00 2.990493e-18
-8.730000e+00 2.326300e-18
-8.720000e+00 1.416740e-18
-8.710000e+00 2.581261e-19
-8.700000e+00 -1.142666e-18
-8.690001e+00 -2.767120e-18
-8.680000e+00 -4.584364e-18
-8.670000e+00 -6.550862e-18
-8.660000e+00 -8.610598e-18
-8.650000e+00 -1.069576e-17
-8.640000e+00 -1.272802e-17
-8.630000e+00 -1.462030e-17
-8.620000e+00 -1.627914e-17
-8.610001e+00 -1.760760e-17
-8.600000e+00 -1.850857e-17
-8.590000e+00 -1.888853e-17
-8.580000e+00 -1.866152e-17
-8.570000e+00 -1.775338e-17
-8.560000e+00 -1.610596e-17
-8.550000e+00 -1.368120e-17
-8.540000e+00 -1.046501e-17
-8.530000e+00 -6.470569e-18
-8.520000e+00 -1.741147e-18
-8.510000e+00 3.647972e-18
-8.500000e+00 9.588451e-18
-8.490000e+00 1.593896e-17
-8.480000e+00 2.252638e-17
-8.470000e+00 2.914837e-17
-8.460000e+00 3.557711e-17
-8.450000e+00 4.156451e-17
-8.440001e+00 4.684856e-17
-8.430000e+00 5.116096e-17
-8.420000e+00 5.423576e-17
-8.410000e+00 5.581886e-17
-8.400000e+00 5.567810e-17
-8.390000e+00 5.361381e-17
-8.380000e+00 4.946920e-17
-8.370000e+00 4.314057e-17
-8.360001e+00 3.458675e-17
-8.350000e+00 2.383747e-17
-8.340000e+00 1.100020e-17
-8.330000e+00 -3.734830e-18
-8.320000e+00 -2.009185e-17
-8.310000e+00 -3.770934e-17
-8.300000e+00 -5.614255e-17
-8.290000e+00 -7.486914e-17
-8.280000e+00 -9.329787e-17
-8.270000e+00 -1.107804e-16
-8.260000e+00 -1.266266e-16
-8.250000e+00 -1.401218e-16
-8.240000e+00 -1.505482e-16
-8.230000e+00 -1.572070e-16
-8.220000e+00 -1.594435e-16
-8.210000e+00 -1.566724e-16
-8.200000e+00 -1.484045e-16
-8.190001e+00 -1.342722e-16
-8.180000e+00 -1.140542e-16
-8.170000e+00 -8.769864e-17
-8.160000e+00 -5.534216e-17
-8.150000e+00 -1.732618e-17
-8.140000e+00 2.579225e-17
-8.130000e+00 7.323487e-17
-8.120000e+00 1.240030e-16
-8.110001e+00 1.768851e-16
-8.100000e+00 2.304719e-16
-8.090000e+00 2.831785e-16
-8.080000e+00 3.332750e-16
-8.070000e+00 3.789238e-16
-8.060000e+00 4.182239e-16
-8.050000e+00 4.492625e-16
-8.040000e+00 4.701710e-16
-8.030000e+00 4.791859e-16
-8.020000e+00 4.747120e-16
-8.010000e+00 4.553882e-16
-8.000000e+00 4.201509e-16
-7.990000e+00 3.682965e-16
-7.980000e+00 2.995386e-16
-7.970000e+00 2.140591e-16
-7.960000e+00 1.125494e-16
-7.950000e+00 -3.757888e-18
-7.940000e+00 -1.330706e-16
-7.930000e+00 -2.730333e-16
-7.920000e+00 -4.207394e-16
-7.910000e+00 -5.727601e-16
-7.900000e+00 -7.251913e-16
-7.890000e+00 -8.737194e-16
-7.880000e+00 -1.013704e-15
-7.870000e+00 -1.140276e-15
-7.860000e+00 -1.248461e-15
-7.850000e+00 -1.333300e-15
-7.840000e+00 -1.389998e-15
-7.830000e+00 -1.414074e-15
-7.820000e+00 -1.401515e-15
-7.810000e+00 -1.348936e-15
-7.800000e+00 -1.253729e-15
-7.790000e+00 -1.114217e-15
-7.780000e+00 -9.297837e-16
-7.770000e+00 -7.009910e-16
-7.760000e+00 -4.296736e-16
-7.750000e+00 -1.190085e-16
-7.740000e+00 2.264489e-16
-7.730000e+00 6.007624e-16
-7.720000e+00 9.966498e-16
-7.710000e+00 1.405560e-15
-7.700000e+00 1.817786e-15
-7.690000e+00 2.222631e-15
-7.680000e+00 2.608601e-15
-7.670000e+00 2.963649e-15
-7.660000e+00 3.275450e-15
-7.650000e+00 3.531705e-15
-7.640000e+00 3.720477e-15
-7.630000e+00 3.830544e-15
-7.620000e+00 3.851755e-15
-7.610000e+00 3.775402e-15
-7.600000e+00 3.594573e-15
-7.590000e+00 3.304495e-15
-7.580000e+00 2.902840e-15
-7.570000e+00 2.389997e-15
-7.560000e+00 1.769298e-15
-7.550000e+00 1.047174e-15
-7.540000e+00 2.332482e-16
-7.530000e+00 -6.596448e-16
-7.520000e+00 -1.615532e-15
-7.510000e+00 -2.615459e-15
-7.500000e+00 -3.637734e-15
-7.490000e+00 -4.658273e-15
-7.480000e+00 -5.651032e-15
-7.470000e+00 -6.588516e-15
-7.460000e+00 -7.442385e-15
-7.450000e+00 -8.184111e-15
-7.440000e+00 -8.785707e-15
-7.430000e+00 -9.220481e-15
-7.420000e+00 -9.463841e-15
-7.410000e+00 -9.494075e-15
-7.400000e+00 -9.293144e-15
-7.390000e+00 -8.847429e-15
-7.380000e+00 -8.148412e-15
-7.370000e+00 -7.193296e-15
-7.360000e+00 -5.985501e-15
-7.350000e+00 -4.535059e-15
-7.340000e+00 -2.858850e-15
-7.330000e+00 -9.806885e-16
-7.320000e+00 1.068761e-15
-7.310000e+00 3.252257e-15
-7.300000e+00 5.526435e-15
-7.290000e+00 7.842454e-15
-7.280000e+00 1.014683e-14
-7.270000e+00 1.238245e-14
-7.260000e+00 1.448973e-14
-7.250000e+00 1.640795e-14
-7.240000e+00 1.807669e-14
-7.230000e+00 1.943735e-14
-7.220000e+00 2.043477e-14
-7.210000e+00 2.101880e-14
-7.200000e+00 2.114593e-14
-7.190000e+00 2.078079e-14
-7.180000e+00 1.989762e-14
-7.170000e+00 1.848154e-14
-7.160000e+00 1.652965e-14
-7.150000e+00 1.405188e-14
-7.140000e+00 1.107162e-14
-7.130000e+00 7.626001e-15
-7.120000e+00 3.765902e-15
-7.110000e+00 -4.444381e-16
-7.100000e+00 -4.928129e-15
-7.090000e+00 -9.596711e-15
-7.080000e+00 -1.435160e-14
-7.070000e+00 -1.908584e-14
-7.060000e+00 -2.368622e-14
-7.050000e+00 -2.803566e-14
-7.040000e+00 -3.201580e-14
-7.030000e+00 -3.550980e-14
-7.020000e+00 -3.840531e-14
-7.010000e+00 -4.059744e-14
-7.000000e+00 -4.199175e-14
-6.990000e+00 -4.250716e-14
-6.980000e+00 -4.207869e-14
-6.970000e+00 -4.065993e-14
-6.960000e+00 -3.822529e-14
-6.950000e+00 -3.477174e-14
-6.940000e+00 -3.032018e-14
-6.930000e+00 -2.491630e-14
-6.920000e+00 -1.863079e-14
-6.910000e+00 -1.155906e-14
-6.900000e+00 -3.820288e-15
-6.890000e+00 4.444156e-15
-6.880000e+00 1.307291e-14
-6.870000e+00 2.188744e-14
-6.860000e+00 3.069536e-14
-6.850000e+00 3.929434e-14
-6.840000e+00 4.747641e-14
-6.830000e+00 5.503263e-14
-6.820000e+00 6.175799e-14
-6.810000e+00 6.745648e-14
-6.800000e+00 7.194619e-14
-6.790000e+00 7.506434e-14
-6.780000e+00 7.667201e-14
-6.770000e+00 7.665855e-14
-6.760000e+00 7.494560e-14
-6.750000e+00 7.149041e-14
-6.740000e+00 6.628843e-14
-6.730000e+00 5.937525e-14
-6.720000e+00 5.082753e-14
-6.710000e+00 4.076297e-14
-6.700000e+00 2.933940e-14
-6.690000e+00 1.675278e-14
-6.680000e+00 3.234208e-15
-6.670000e+00 -1.095397e-14
-6.660000e+00 -2.552308e-14
-6.650000e+00 -4.016378e-14
-6.640000e+00 -5.455249e-14
-6.630000e+00 -6.835839e-14
-6.620000e+00 -8.125092e-14
-6.610000e+00 -9.290749e-14
-6.600000e+00 -1.030214e-13
-6.590000e+00 -1.113095e-13
-6.580000e+00 -1.175198e-13
-6.570000e+00 -1.214386e-13
-6.560000e+00 -1.228967e-13
-6.550000e+00 -1.217749e-13
-6.540000e+00 -1.180086e-13
-6.530000e+00 -1.115915e-13
-6.520000e+00 -1.025771e-13
-6.510000e+00 -9.108012e-14
-6.500000e+00 -7.727515e-14
-6.490000e+00 -6.139499e-14
-6.480000e+00 -4.372682e-14
-6.470000e+00 -2.460719e-14
-6.460000e+00 -4.415618e-15
-6.450000e+00 1.643299e-14
-6.440000e+00 3.749709e-14
-6.430000e+00 5.831811e-14
-6.420000e+00 7.843068e-14
-6.410000e+00 9.737355e-14
-6.400000e+00 1.147004e-13
-6.390000e+00 1.299911e-13
-6.380000e+00 1.428617e-13
-6.370000e+00 1.529752e-13
-6.360000e+00 1.600504e-13
-6.350000e+00 1.638696e-13
-6.340000e+00 1.642862e-13
-6.330000e+00 1.612289e-13
-6.320000e+00 1.547061e-13
-6.310000e+00 1.448068e-13
-6.300000e+00 1.317008e-13
-6.290000e+00 1.156363e-13
-6.280000e+00 9.693549e-14
-6.270000e+00 7.598857e-14
-6.260000e+00 5.324577e-14
-6.250000e+00 2.920765e-14
-6.240000e+00 4.413992e-15
-6.230000e+00 -2.056855e-14
-6.220000e+00 -4.515975e-14
-6.210000e+00 -6.877976e-14
-6.200000e+00 -9.086337e-14
-6.190000e+00 -1.108743e-13
-6.180000e+00 -1.283192e-13
-6.170000e+00 -1.427604e-13
-6.160000e+00 -1.538284e-13
-6.150000e+00 -1.612324e-13
-6.140000e+00 -1.647692e-13
-6.130000e+00 -1.643304e-13
-6.120000e+00 -1.599072e-13
-6.110000e+00 -1.515928e-13
-6.100000e+00 -1.395828e-13
-6.090000e+00 -1.241723e-13
-6.080000e+00 -1.057517e-13
-6.070000e+00 -8.479879e-14
-6.060000e+00 -6.186933e-14
-6.050000e+00 -3.758551e-14
-6.040000e+00 -1.262228e-14
-6.030000e+00 1.230763e-14
-6.020000e+00 3.647004e-14
-6.010000e+00 5.912629e-14
-6.000000e+00 7.955077e-14
-5.990000e+00 9.704828e-14
-5.980000e+00 1.109711e-13
-5.970000e+00 1.207350e-13
-5.960000e+00 1.258339e-13
-5.950000e+00 1.258534e-13
-5.940000e+00 1.204812e-13
-5.930000e+00 1.095163e-13
-5.920000e+00 9.287483e-14
-5.910000e+00 7.059353e-14
-5.900000e+00 4.282992e-14
-5.890000e+00 9.859950e-15
-5.880000e+00 -2.792760e-14
-5.870000e+00 -7.003945e-14
-5.860000e+00 -1.158888e-13
-5.850000e+00 -1.648088e-13
-5.840000e+00 -2.160679e-13
-5.830000e+00 -2.688875e-13
-5.820000e+00 -3.224600e-13
-5.810000e+00 -3.759691e-13
-5.800000e+00 -4.286088e-13
-5.790000e+00 -4.796037e-13
-5.780000e+00 -5.282283e-13
-5.770000e+00 -5.738246e-13
-5.760000e+00 -6.158190e-13
-5.750000e+00 -6.537369e-13
-5.740000e+00 -6.872147e-13
-5.730000e+00 -7.160091e-13
-5.720000e+00 -7.400039e-13
-5.710000e+00 -7.592130e-13
-5.700000e+00 -7.737808e-13
-5.690000e+00 -7.839784e-13
-5.680000e+00 -7.901974e-13
-5.670000e+00 -7.929403e-13
-5.660000e+00 -7.928075e-13
-5.650000e+00 -7.904829e-13
-5.640000e+00 -7.867159e-13
-5.630000e+00 -7.823025e-13
-5.620000e+00 -7.780650e-13
-5.610000e+00 -7.748306e-13
-5.600000e+00 -7.734099e-13
-5.590000e+00 -7.745760e-13
-5.580000e+00 -7.790436e-13
-5.570000e+00 -7.874508e-13
-5.560000e+00 -8.003413e-13
-5.550000e+00 -8.181506e-13
-5.540000e+00 -8.411932e-13
-5.530000e+00 -8.696543e-13
-5.520000e+00 -9.035838e-13
-5.510000e+00 -9.428952e-13
-5.500000e+00 -9.873655e-13
-5.490000e+00 -1.036642e-12
-5.480000e+00 -1.090249e-12
-5.470000e+00 -1.147604e-12
-5.460000e+00 -1.208024e-12
-5.450000e+00 -1.270753e-12
-5.440000e+00 -1.334974e-12
-5.430000e+00 -1.399834e-12
-5.420000e+00 -1.464466e-12
-5.410000e+00 -1.528008e-12
-5.400000e+00 -1.589634e-12
-5.390000e+00 -1.648568e-12
-5.380000e+00 -1.704111e-12
-5.370000e+00 -1.755657e-12
-5.360000e+00 -1.802712e-12
-5.350000e+00 -1.844907e-12
-5.340000e+00 -1.882009e-12
-5.330000e+00 -1.913932e-12
-5.320000e+00 -1.940736e-12
-5.310000e+00 -1.962632e-12
-5.300000e+00 -1.979976e-12
-5.290000e+00 -1.993262e-12
-5.280000e+00 -2.003113e-12
-5.270000e+00 -2.010263e-12
-5.260000e+00 -2.015545e-12
-5.250000e+00 -2.019867e-12
-5.240000e+00 -2.024192e-12
-5.230000e+00 -2.029515e-12
-5.220000e+00 -2.036838e-12
-5.210000e+00 -2.047145e-12
-5.200000e+00 -2.061377e-12
-5.190000e+00 -2.080413e-12
-5.180000e+00 -2.105041e-12
-5.170000e+00 -2.135945e-12
-5.160000e+00 -2.173683e-12
-5.150000e+00 -2.218675e-12
-5.140000e+00 -2.271190e-12
-5.130000e+00 -2.331340e-12
-5.120000e+00 -2.399080e-12
-5.110000e+00 -2.474202e-12
-5.100000e+00 -2.556344e-12
-5.090000e+00 -2.644996e-12
-5.080000e+00 -2.739515e-12
-5.070000e+00 -2.839136e-12
-5.060000e+00 -2.942996e-12
-5.050000e+00 -3.050149e-12
-5.040000e+00 -3.159592e-12
-5.030000e+00 -3.270288e-12
-5.020000e+00 -3.381191e-12
-5.010000e+00 -3.491275e-12
-5.000000e+00 -3.599553e-12
-4.990000e+00 -3.705102e-12
-4.980000e+00 -3.807091e-12
-4.970000e+00 -3.904794e-12
-4.960000e+00 -3.997613e-12
-4.950000e+00 -4.085088e-12
-4.940000e+00 -4.166909e-12
-4.930000e+00 -4.242931e-12
-4.920000e+00 -4.313167e-12
-4.910000e+00 -4.377793e-12
-4.900000e+00 -4.437147e-12
-4.890000e+00 -4.491717e-12
-4.880000e+00 -4.542133e-12
-4.870000e+00 -4.589152e-12
-4.860000e+00 -4.633642e-12
-4.850000e+00 -4.676562e-12
-4.840000e+00 -4.718941e-12
-4.830000e+00 -4.761858e-12
-4.820000e+00 -4.806415e-12
-4.810000e+00 -4.853717e-12
-4.800000e+00 -4.904848e-12
-4.790000e+00 -4.960849e-12
-4.780000e+00 -5.022695e-12
-4.770000e+00 -5.091282e-12
-4.760000e+00 -5.167404e-12
-4.750000e+00 -5.251742e-12
-4.740000e+00 -5.344850e-12
-4.730000e+00 -5.447153e-12
-4.720000e+00 -5.558935e-12
-4.710000e+00 -5.680340e-12
-4.700000e+00 -5.811374e-12
-4.690000e+00 -5.951908e-12
-4.680000e+00 -6.101685e-12
-4.670000e+00 -6.260331e-12
-4.660000e+00 -6.427366e-12
-4.650000e+00 -6.602214e-12
-4.640000e+00 -6.784226e-12
-4.630000e+00 -6.972688e-12
-4.620000e+00 -7.166844e-12
-4.610000e+00 -7.365908e-12
-4.600000e+00 -7.569084e-12
-4.590000e+00 -7.775583e-12
-4.580000e+00 -7.984631e-12
-4.570000e+00 -8.195491e-12
-4.560000e+00 -8.407469e-12
-4.550000e+00 -8.619929e-12
-4.540000e+00 -8.832297e-12
-4.530000e+00 -9.044071e-12
-4.520000e+00 -9.254826e-12
-4.510000e+00 -9.464211e-12
-4.500000e+00 -9.671952e-12
-4.490000e+00 -9.877855e-12
-4.480000e+00 -1.008180e-11
-4.470000e+00 -1.028373e-11
-4.460000e+00 -1.048366e-11
-4.450000e+00 -1.068166e-11
-4.440000e+00 -1.087786e-11
-4.430000e+00 -1.107243e-11
-4.420000e+00 -1.126558e-11
-4.410000e+00 -1.145755e-11
-4.400000e+00 -1.164864e-11
-4.390000e+00 -1.183914e-11
-4.380000e+00 -1.202937e-11
-4.370000e+00 -1.221969e-11
-4.360000e+00 -1.241046e-11
-4.350000e+00 -1.260208e-11
-4.340000e+00 -1.279494e-11
-4.330000e+00 -1.298948e-11
-4.320000e+00 -1.318615e-11
-4.310000e+00 -1.338545e-11
-4.300000e+00 -1.358788e-11
-4.290000e+00 -1.379400e-11
-4.280000e+00 -1.400438e-11
-4.270000e+00 -1.421967e-11
-4.260000e+00 -1.444052e-11
-4.250000e+00 -1.466764e-11
-4.240000e+00 -1.490178e-11
-4.230000e+00 -1.514371e-11
-4.220000e+00 -1.539425e-11
-4.210000e+00 -1.565421e-11
-4.200000e+00 -1.592443e-11
-4.190000e+00 -1.620577e-11
-4.180000e+00 -1.649904e-11
-4.170000e+00 -1.680504e-11
-4.160000e+00 -1.712452e-11
-4.150000e+00 -1.745818e-11
-4.140000e+00 -1.780662e-11
-4.130000e+00 -1.817036e-11
-4.120000e+00 -1.854978e-11
-4.110000e+00 -1.894515e-11
-4.100000e+00 -1.935657e-11
-4.090000e+00 -1.978398e-11
-4.080000e+00 -2.022715e-11
-4.070000e+00 -2.068566e-11
-4.060000e+00 -2.115890e-11
-4.050000e+00 -2.164608e-11
-4.040000e+00 -2.214620e-11
-4.030000e+00 -2.265811e-11
-4.020000e+00 -2.318048e-11
-4.010000e+00 -2.371183e-11
-4.000000e+00 -2.425056e-11
-3.990000e+00 -2.479495e-11
-3.980000e+00 -2.534324e-11
-3.970000e+00 -2.589363e-11
-3.960000e+00 -2.644430e-11
-3.950000e+00 -2.699349e-11
-3.940001e+00 -2.753953e-11
-3.930000e+00 -2.808085e-11
-3.920000e+00 -2.861607e-11
-3.910000e+00 -2.914400e-11
-3.900001e+00 -2.966370e-11
-3.890000e+00 -3.017450e-11
-3.880000e+00 -3.067606e-11
-3.870000e+00 -3.116835e-11
-3.860001e+00 -3.165171e-11
-3.850000e+00 -3.212681e-11
-3.840000e+00 -3.259473e-11
-3.830000e+00 -3.305688e-11
-3.820001e+00 -3.351505e-11
-3.810000e+00 -3.397133e-11
-3.800000e+00 -3.442814e-11
-3.790000e+00 -3.488817e-11
-3.780000e+00 -3.535431e-11
-3.770000e+00 -3.582964e-11
-3.760000e+00 -3.631737e-11
-3.750000e+00 -3.682075e-11
-3.740000e+00 -3.734305e-11
-3.730000e+00 -3.788744e-11
-3.720000e+00 -3.845697e-11
-3.710000e+00 -3.905449e-11
-3.700000e+00 -3.968258e-11
-3.690001e+00 -4.034349e-11
-3.680000e+00 -4.103910e-11
-3.670000e+00 -4.177085e-11
-3.660000e+00 -4.253975e-11
-3.650001e+00 -4.334628e-11
-3.640000e+00 -4.419043e-11
-3.630000e+00 -4.507166e-11
-3.620000e+00 -4.598892e-11
-3.610001e+00 -4.694067e-11
-3.600000e+00 -4.792489e-11
-3.590000e+00 -4.893910e-11
-3.580000e+00 -4.998047e-11
-3.570001e+00 -5.104586e-11
-3.560000e+00 -5.213182e-11
-3.550000e+00 -5.323477e-11
-3.540000e+00 -5.435102e-11
-3.530000e+00 -5.547685e-11
-3.520000e+00 -5.660861e-11
-3.510000e+00 -5.774285e-11
-3.500000e+00 -5.887635e-11
-3.490000e+00 -6.000619e-11
-3.480000e+00 -6.112987e-11
-3.470000e+00 -6.224539e-11
-3.460000e+00 -6.335124e-11
-3.450000e+00 -6.444650e-11
-3.440001e+00 -6.553082e-11
-3.430000e+00 -6.660453e-11
-3.420000e+00 -6.766854e-11
-3.410000e+00 -6.872439e-11
-3.400001e+00 -6.977424e-11
-3.390000e+00 -7.082075e-11
-3.380000e+00 -7.186713e-11
-3.370000e+00 -7.291698e-11
-3.360001e+00 -7.397431e-11
-3.350000e+00 -7.504337e-11
-3.340000e+00 -7.612859e-11
-3.330000e+00 -7.723449e-11
-3.320001e+00 -7.836558e-11
-3.310000e+00 -7.952626e-11
-3.300000e+00 -8.072067e-11
-3.290000e+00 -8.195269e-11
-3.280000e+00 -8.322576e-11
-3.270000e+00 -8.454288e-11
-3.260000e+00 -8.590648e-11
-3.250000e+00 -8.731842e-11
-3.240000e+00 -8.877992e-11
-3.230000e+00 -9.029153e-11
-3.220000e+00 -9.185315e-11
-3.210000e+00 -9.346403e-11
-3.200000e+00 -9.512278e-11
-3.190001e+00 -9.682745e-11
-3.180000e+00 -9.857553e-11
-3.170000e+00 -1.003641e-10
-3.160000e+00 -1.021898e-10
-3.150001e+00 -1.040490e-10
-3.140000e+00 -1.059380e-10
-3.130000e+00 -1.078528e-10
-3.120000e+00 -1.097896e-10
-3.110001e+00 -1.117447e-10
-3.100000e+00 -1.137146e-10
-3.090000e+00 -1.156962e-10
-3.080000e+00 -1.176866e-10
-3.070001e+00 -1.196837e-10
-3.060000e+00 -1.216857e-10
-3.050000e+00 -1.236916e-10
-3.040000e+00 -1.257009e-10
-3.030000e+00 -1.277139e-10
-3.020000e+00 -1.297314e-10
-3.010000e+00 -1.317550e-10
-3.000000e+00 -1.337869e-10
-2.990000e+00 -1.358298e-10
-2.980000e+00 -1.378869e-10
-2.970000e+00 -1.399619e-10
-2.960000e+00 -1.420589e-10
-2.950000e+00 -1.441820e-10
-2.940001e+00 -1.463358e-10
-2.930000e+00 -1.485248e-10
-2.920000e+00 -1.507533e-10
-2.910000e+00 -1.530258e-10
-2.900001e+00 -1.553462e-10
-2.890000e+00 -1.577184e-10
-2.880000e+00 -1.601455e-10
-2.870000e+00 -1.626304e-10
-2.860001e+00 -1.651755e-10
-2.850000e+00 -1.677825e-10
-2.840000e+00 -1.704524e-10
-2.830000e+00 -1.731858e-10
-2.820001e+00 -1.759827e-10
-2.810000e+00 -1.788422e-10
-2.800000e+00 -1.817634e-10
-2.790000e+00 -1.847444e-10
-2.780000e+00 -1.877831e-10
-2.770000e+00 -1.908770e-10
-2.760000e+00 -1.940234e-10
-2.750000e+00 -1.972193e-10
-2.740000e+00 -2.004617e-10
-2.730000e+00 -2.037474e-10
-2.720000e+00 -2.070736e-10
-2.710000e+00 -2.104373e-10
-2.700000e+00 -2.138359e-10
-2.690001e+00 -2.172672e-10
-2.680000e+00 -2.207293e-10
-2.670000e+00 -2.242206e-10
-2.660000e+00 -2.277401e-10
-2.650001e+00 -2.312873e-10
-2.640000e+00 -2.348622e-10
-2.630000e+00 -2.384650e-10
-2.620000e+00 -2.420968e-10
-2.610001e+00 -2.457590e-10
-2.600000e+00 -2.494533e-10
-2.590000e+00 -2.531819e-10
-2.580000e+00 -2.569473e-10
-2.570001e+00 -2.607523e-10
-2.560000e+00 -2.645997e-10
-2.550000e+00 -2.684928e-10
-2.540000e+00 -2.724347e-10
-2.530001e+00 -2.764286e-10
-2.520000e+00 -2.804776e-10
-2.510000e+00 -2.845847e-10
-2.500000e+00 -2.887528e-10
-2.490000e+00 -2.929847e-10
-2.480000e+00 -2.972827e-10
-2.470000e+00 -3.016490e-10
-2.460000e+00 -3.060856e-10
-2.450000e+00 -3.105942e-10
-2.440001e+00 -3.151760e-10
-2.430000e+00 -3.198323e-10
-2.420000e+00 -3.245637e-10
-2.410000e+00 -3.293711e-10
-2.400001e+00 -3.342548e-10
-2.390000e+00 -3.392150e-10
-2.380000e+00 -3.442519e-10
-2.370000e+00 -3.493654e-10
-2.360001e+00 -3.545554e-10
-2.350000e+00 -3.598219e-10
-2.340000e+00 -3.651647e-10
-2.330000e+00 -3.705836e-10
-2.320001e+00 -3.760786e-10
-2.310000e+00 -3.816496e-10
-2.300000e+00 -3.872966e-10
-2.290000e+00 -3.930198e-10
-2.280001e+00 -3.988192e-10
-2.270000e+00 -4.046950e-10
-2.260000e+00 -4.106476e-10
-2.250000e+00 -4.166772e-10
-2.240000e+00 -4.227843e-10
-2.230000e+00 -4.289691e-10
-2.220000e+00 -4.352322e-10
-2.210000e+00 -4.415739e-10
-2.200000e+00 -4.479946e-10
-2.190001e+00 -4.544947e-10
-2.180000e+00 -4.610747e-10
-2.170000e+00 -4.677347e-10
-2.160000e+00 -4.744752e-10
-2.150001e+00 -4.812963e-10
-2.140000e+00 -4.881983e-10
-2.130000e+00 -4.951814e-10
-2.120000e+00 -5.022460e-10
-2.110001e+00 -5.093923e-10
-2.100000e+00 -5.166206e-10
-2.090000e+00 -5.239315e-10
-2.080000e+00 -5.313253e-10
-2.070001e+00 -5.388028e-10
-2.060000e+00 -5.463646e-10
-2.050000e+00 -5.540118e-10
-2.040000e+00 -5.617454e-10
-2.030001e+00 -5.695666e-10
-2.020000e+00 -5.774771e-10
-2.010000e+00 -5.854783e-10
-2.000000e+00 -5.935721e-10
-1.990000e+00 -6.017606e-10
-1.980000e+00 -6.100458e-10
-1.970000e+00 -6.184300e-10
-1.960000e+00 -6.269156e-10
-1.950000e+00 -6.355050e-10
-1.940001e+00 -6.442007e-10
-1.930000e+00 -6.530053e-10
-1.920000e+00 -6.619208e-10
-1.910000e+00 -6.709498e-10
-1.900001e+00 -6.800945e-10
-1.890000e+00 -6.893571e-10
-1.880000e+00 -6.987393e-10
-1.870000e+00 -7.082427e-10
-1.860001e+00 -7.178690e-10
-1.850000e+00 -7.276192e-10
-1.840000e+00 -7.374943e-10
-1.830000e+00 -7.474952e-10
-1.820001e+00 -7.576224e-10
-1.810000e+00 -7.678760e-10
-1.800000e+00 -7.782562e-10
-1.790000e+00 -7.887632e-10
-1.780001e+00 -7.993967e-10
-1.770000e+00 -8.101566e-10
-1.760000e+00 -8.210424e-10
-1.750000e+00 -8.320541e-10
-1.740000e+00 -8.431916e-10
-1.730000e+00 -8.544546e-10
-1.720000e+00 -8.658433e-10
-1.710000e+00 -8.773580e-10
-1.700000e+00 -8.889990e-10
-1.690001e+00 -9.007671e-10
-1.680000e+00 -9.126632e-10
-1.670000e+00 -9.246884e-10
-1.660000e+00 -9.368443e-10
-1.650001e+00 -9.491324e-10
-1.640000e+00 -9.615547e-10
-1.630000e+00 -9.741133e-10
-1.620000e+00 -9.868105e-10
-1.610001e+00 -9.996486e-10
-1.600000e+00 -1.012630e-09
-1.590000e+00 -1.025758e-09
-1.580000e+00 -1.039034e-09
-1.570001e+00 -1.052461e-09
-1.560000e+00 -1.066041e-09
-1.550000e+00 -1.079778e-09
-1.540000e+00 -1.093672e-09
-1.530001e+00 -1.107726e-09
-1.520000e+00 -1.121941e-09
-1.510000e+00 -1.136320e-09
-1.500000e+00 -1.150862e-09
-1.490000e+00 -1.165570e-09
-1.480000e+00 -1.180444e-09
-1.470000e+00 -1.195484e-09
-1.460000e+00 -1.210691e-09
-1.450000e+00 -1.226064e-09
-1.440001e+00 -1.241605e-09
-1.430000e+00 -1.257313e-09
-1.420000e+00 -1.273187e-09
-1.410000e+00 -1.289228e-09
-1.400001e+00 -1.305436e-09
-1.390000e+00 -1.321811e-09
-1.380000e+00 -1.338353e-09
-1.370000e+00 -1.355062e-09
-1.360001e+00 -1.371939e-09
-1.350000e+00 -1.388986e-09
-1.340000e+00 -1.406202e-09
-1.330000e+00 -1.423590e-09
-1.320001e+00 -1.441152e-09
-1.310000e+00 -1.458888e-09
-1.300000e+00 -1.476801e-09
-1.290000e+00 -1.494895e-09
-1.280001e+00 -1.513170e-09
-1.270000e+00 -1.531631e-09
-1.260000e+00 -1.550279e-09
-1.250000e+00 -1.569118e-09
-1.240000e+00 -1.588151e-09
-1.230000e+00 -1.607381e-09
-1.220000e+00 -1.626810e-09
-1.210000e+00 -1.646442e-09
-1.200000e+00 -1.666278e-09
-1.190001e+00 -1.686321e-09