-1.200000e+01 0.000000e+00
-1.199000e+01 0.000000e+00
-1.198000e+01 0.000000e+00
-1.197000e+01 0.000000e+00
-1.196000e+01 6.902021e-26
-1.195000e+01 -8.708152e-23
-1.194000e+01 -9.525827e-22
-1.193000e+01 -5.657991e-21
-1.192000e+01 -2.420813e-20
-1.191000e+01 -8.347067e-20
-1.190000e+01 -2.461680e-19
-1.189000e+01 -6.439595e-19
-1.188000e+01 -1.530896e-18
-1.187000e+01 -3.364581e-18
-1.186000e+01 -6.923013e-18
-1.185000e+01 -1.346506e-17
-1.184000e+01 -2.494162e-17
-1.183000e+01 -4.426237e-17
-1.182000e+01 -7.561984e-17
-1.181000e+01 -1.248671e-16
-1.180000e+01 -1.999398e-16
-1.179000e+01 -3.113026e-16
-1.178000e+01 -4.723948e-16
-1.177000e+01 -7.000319e-16
-1.176000e+01 -1.014715e-15
-1.175000e+01 -1.440777e-15
-1.174000e+01 -2.006296e-15
-1.173000e+01 -2.742675e-15
-1.172000e+01 -3.683785e-15
-1.171000e+01 -4.864572e-15
-1.170000e+01 -6.318984e-15
-1.169000e+01 -8.077126e-15
-1.168000e+01 -1.016150e-14
-1.167000e+01 -1.258223e-14
-1.166000e+01 -1.533119e-14
-1.165000e+01 -1.837497e-14
-1.164000e+01 -2.164657e-14
-1.163000e+01 -2.503599e-14
-1.162000e+01 -2.837960e-14
-1.161000e+01 -3.144852e-14
-1.160000e+01 -3.393618e-14
-1.159000e+01 -3.544523e-14
-1.158000e+01 -3.547436e-14
-1.157000e+01 -3.340517e-14
-1.156000e+01 -2.848988e-14
-1.155000e+01 -1.984034e-14
-1.154000e+01 -6.419036e-15
-1.153000e+01 1.296708e-14
-1.152000e+01 3.966916e-14
-1.151000e+01 7.519445e-14
-1.150000e+01 1.211990e-13
-1.149000e+01 1.794738e-13
-1.148000e+01 2.519240e-13
-1.147000e+01 3.405395e-13
-1.146000e+01 4.473572e-13
-1.145000e+01 5.744133e-13
-1.144000e+01 7.236858e-13
-1.143000e+01 8.970263e-13
-1.142000e+01 1.096082e-12
-1.141000e+01 1.322206e-12
-1.140000e+01 1.576360e-12
-1.139000e+01 1.859008e-12
-1.138000e+01 2.169999e-12
-1.137000e+01 2.508448e-12
-1.136000e+01 2.872612e-12
-1.135000e+01 3.259762e-12
-1.134000e+01 3.666060e-12
-1.133000e+01 4.086439e-12
-1.132000e+01 4.514492e-12
-1.131000e+01 4.942375e-12
-1.130000e+01 5.360723e-12
-1.129000e+01 5.758589e-12
-1.128000e+01 6.123417e-12
-1.127000e+01 6.441030e-12
-1.126000e+01 6.695670e-12
-1.125000e+01 6.870066e-12
-1.124000e+01 6.945555e-12
-1.123000e+01 6.902247e-12
-1.122000e+01 6.719240e-12
-1.121000e+01 6.374895e-12
-1.120000e+01 5.847159e-12
-1.119000e+01 5.113950e-12
-1.118000e+01 4.153602e-12
-1.117000e+01 2.945343e-12
-1.116000e+01 1.469856e-12
-1.115000e+01 -2.901384e-13
-1.114000e+01 -2.349254e-12
-1.113000e+01 -4.718770e-12
-1.112000e+01 -7.405947e-12
-1.111000e+01 -1.041333e-11
-1.110000e+01 -1.373805e-11
-1.109000e+01 -1.737114e-11
-1.108000e+01 -2.129687e-11
-1.107000e+01 -2.549215e-11
-1.106000e+01 -2.992598e-11
-1.105000e+01 -3.455900e-11
-1.104000e+01 -3.934307e-11
-1.103000e+01 -4.422109e-11
-1.102000e+01 -4.912684e-11
-1.101000e+01 -5.398504e-11
-1.100000e+01 -5.871153e-11
-1.099000e+01 -6.321368e-11
-1.098000e+01 -6.739102e-11
-1.097000e+01 -7.113592e-11
-1.096000e+01 -7.433473e-11
-1.095000e+01 -7.686891e-11
-1.094000e+01 -7.861654e-11
-1.093000e+01 -7.945390e-11
-1.092000e+01 -7.925745e-11
-1.091000e+01 -7.790577e-11
-1.090000e+01 -7.528191e-11
-1.089000e+01 -7.127569e-11
-1.088000e+01 -6.578635e-11
-1.087000e+01 -5.872500e-11
-1.086000e+01 -5.001749e-11
-1.085000e+01 -3.960697e-11
-1.084000e+01 -2.745666e-11
-1.083000e+01 -1.355240e-11
-1.082000e+01 2.094808e-12
-1.081000e+01 1.944655e-11
-1.080000e+01 3.843490e-11
-1.079000e+01 5.896065e-11
-1.078000e+01 8.089182e-11
-1.077000e+01 1.040627e-10
-1.076000e+01 1.282733e-10
-1.075000e+01 1.532891e-10
-1.074000e+01 1.788415e-10
-1.073000e+01 2.046292e-10
-1.072000e+01 2.303194e-10
-1.071000e+01 2.555506e-10
-1.070000e+01 2.799349e-10
-1.069000e+01 3.030621e-10
-1.068000e+01 3.245041e-10
-1.067000e+01 3.438191e-10
-1.066000e+01 3.605579e-10
-1.065000e+01 3.742694e-10
-1.064000e+01 3.845074e-10
-1.063000e+01 3.908376e-10
-1.062000e+01 3.928451e-10
-1.061000e+01 3.901419e-10
-1.060000e+01 3.823750e-10
-1.059000e+01 3.692337e-10
-1.058000e+01 3.504585e-10
-1.057000e+01 3.258477e-10
-1.056000e+01 2.952655e-10
-1.055000e+01 2.586485e-10
-1.054000e+01 2.160122e-10
-1.053000e+01 1.674566e-10
-1.052000e+01 1.131706e-10
-1.051000e+01 5.343613e-11
-1.050000e+01 -1.136968e-11
-1.049000e+01 -8.077298e-11
-1.048000e+01 -1.542033e-10
-1.047000e+01 -2.309949e-10
-1.046000e+01 -3.103902e-10
-1.045000e+01 -3.915438e-10
-1.044000e+01 -4.735290e-10
-1.043000e+01 -5.553453e-10
-1.042000e+01 -6.359280e-10
-1.041000e+01 -7.141590e-10
-1.040000e+01 -7.888792e-10
-1.039000e+01 -8.589021e-10
-1.038000e+01 -9.230291e-10
-1.037000e+01 -9.800651e-10
-1.036000e+01 -1.028836e-09
-1.035000e+01 -1.068208e-09
-1.034000e+01 -1.097100e-09
-1.033000e+01 -1.114511e-09
-1.032000e+01 -1.119531e-09
-1.031000e+01 -1.111364e-09
-1.030000e+01 -1.089343e-09
-1.029000e+01 -1.052946e-09
-1.028000e+01 -1.001817e-09
-1.027000e+01 -9.357747e-10
-1.026000e+01 -8.548257e-10
-1.025000e+01 -7.591775e-10
-1.024000e+01 -6.492449e-10
-1.023000e+01 -5.256556e-10
-1.022000e+01 -3.892536e-10
-1.021000e+01 -2.410987e-10
-1.020000e+01 -8.246384e-11
-1.019000e+01 8.517180e-11
-1.018000e+01 2.601319e-10
-1.017000e+01 4.405562e-10
-1.016000e+01 6.244164e-10
-1.015000e+01 8.095354e-10
-1.014000e+01 9.936103e-10
-1.013000e+01 1.174237e-09
-1.012000e+01 1.348937e-09
-1.011000e+01 1.515192e-09
-1.010000e+01 1.670471e-09
-1.009000e+01 1.812266e-09
-1.008000e+01 1.938130e-09
-1.007000e+01 2.045710e-09
-1.006000e+01 2.132784e-09
-1.005000e+01 2.197297e-09
-1.004000e+01 2.237400e-09
-1.003000e+01 2.251480e-09
-1.002000e+01 2.238193e-09
-1.001000e+01 2.196499e-09
-1.000000e+01 2.125681e-09
-9.990000e+00 2.025378e-09
-9.980000e+00 1.895600e-09
-9.970000e+00 1.736744e-09
-9.960000e+00 1.549607e-09
-9.950000e+00 1.335392e-09
-9.940001e+00 1.095708e-09
-9.930000e+00 8.325632e-10
-9.920000e+00 5.483609e-10
-9.910000e+00 2.458769e-10
-9.900000e+00 -7.175914e-11
-9.890000e+00 -4.010924e-10
-9.880000e+00 -7.383758e-10
-9.870000e+00 -1.079608e-09
-9.860001e+00 -1.420578e-09
-9.850000e+00 -1.756912e-09
-9.840000e+00 -2.084123e-09
-9.830000e+00 -2.397671e-09
-9.820000e+00 -2.693018e-09
-9.809999e+00 -2.965688e-09
-9.800000e+00 -3.211327e-09
-9.790000e+00 -3.425768e-09
-9.780000e+00 -3.605091e-09
-9.770000e+00 -3.745684e-09
-9.760000e+00 -3.844297e-09
-9.750000e+00 -3.898105e-09
-9.740000e+00 -3.904753e-09
-9.730000e+00 -3.862405e-09
-9.720000e+00 -3.769787e-09
-9.710000e+00 -3.626220e-09
-9.700000e+00 -3.431649e-09
-9.690001e+00 -3.186668e-09
-9.680000e+00 -2.892528e-09
-9.670000e+00 -2.551143e-09
-9.660000e+00 -2.165091e-09
-9.650000e+00 -1.737597e-09
-9.640000e+00 -1.272512e-09
-9.630000e+00 -7.742870e-10
-9.620000e+00 -2.479288e-10
-9.610001e+00 3.010434e-10
-9.600000e+00 8.666541e-10
-9.590000e+00 1.442534e-09
-9.580000e+00 2.021991e-09
-9.570000e+00 2.598081e-09
-9.559999e+00 3.163694e-09
-9.550000e+00 3.711637e-09
-9.540000e+00 4.234717e-09
-9.530000e+00 4.725842e-09
-9.520000e+00 5.178101e-09
-9.510000e+00 5.584862e-09
-9.500000e+00 5.939859e-09
-9.490000e+00 6.237278e-09
-9.480000e+00 6.471845e-09
-9.470000e+00 6.638897e-09
-9.460000e+00 6.734462e-09
-9.450000e+00 6.755318e-09
-9.440001e+00 6.699052e-09
-9.430000e+00 6.564110e-09
-9.420000e+00 6.349832e-09
-9.410000e+00 6.056482e-09
-9.400000e+00 5.685264e-09
-9.390000e+00 5.238326e-09
-9.380000e+00 4.718756e-09
-9.370000e+00 4.130563e-09
-9.360001e+00 3.478646e-09
-9.350000e+00 2.768753e-09
-9.340000e+00 2.007430e-09
-9.330000e+00 1.201959e-09
-9.320000e+00 3.602783e-10
-9.309999e+00 -5.090919e-10
-9.300000e+00 -1.397145e-09
-9.290000e+00 -2.294484e-09
-9.280000e+00 -3.191425e-09
-9.270000e+00 -4.078109e-09
-9.260000e+00 -4.944611e-09
-9.250000e+00 -5.781055e-09
-9.240000e+00 -6.577729e-09
-9.230000e+00 -7.325203e-09
-9.220000e+00 -8.014437e-09
-9.210000e+00 -8.636892e-09
-9.200000e+00 -9.184635e-09
-9.190001e+00 -9.650436e-09
-9.180000e+00 -1.002786e-08
-9.170000e+00 -1.031134e-08
-9.160000e+00 -1.049626e-08
-9.150000e+00 -1.057903e-08
-9.140000e+00 -1.055709e-08
-9.130000e+00 -1.042899e-08
-9.120000e+00 -1.019443e-08
-9.110001e+00 -9.854201e-09
-9.100000e+00 -9.410262e-09
-9.090000e+00 -8.865685e-09
-9.080000e+00 -8.224641e-09
-9.070000e+00 -7.492356e-09
-9.060000e+00 -6.675066e-09
-9.050000e+00 -5.779952e-09
-9.040000e+00 -4.815065e-09
-9.030000e+00 -3.789244e-09
-9.020000e+00 -2.712024e-09
-9.010000e+00 -1.593536e-09
-9.000000e+00 -4.444000e-10
-8.990000e+00 7.243867e-10
-8.980000e+00 1.901565e-09
-8.970000e+00 3.075735e-09
-8.960000e+00 4.235470e-09
-8.950000e+00 5.369444e-09
-8.940001e+00 6.466545e-09
-8.930000e+00 7.515990e-09
-8.920000e+00 8.507440e-09
-8.910000e+00 9.431100e-09
-8.900000e+00 1.027783e-08
-8.890000e+00 1.103921e-08
-8.880000e+00 1.170768e-08
-8.870000e+00 1.227653e-08
-8.860001e+00 1.274004e-08
-8.850000e+00 1.309350e-08
-8.840000e+00 1.333326e-08
-8.830000e+00 1.345675e-08
-8.820000e+00 1.346250e-08
-8.810000e+00 1.335018e-08
-8.800000e+00 1.312056e-08
-8.790000e+00 1.277549e-08
-8.780000e+00 1.231793e-08
-8.770000e+00 1.175184e-08
-8.760000e+00 1.108221e-08
-8.750000e+00 1.031492e-08
-8.740000e+00 9.456767e-09
-8.730000e+00 8.515324e-09
-8.720000e+00 7.498899e-09
-8.710000e+00 6.416440e-09
-8.700000e+00 5.277449e-09
-8.690001e+00 4.091889e-09
-8.680000e+00 2.870089e-09
-8.670000e+00 1.622653e-09
-8.660000e+00 3.603511e-10
-8.650000e+00 -9.059679e-10
-8.640000e+00 -2.165478e-09
-8.630000e+00 -3.407469e-09
-8.620000e+00 -4.621442e-09
-8.610001e+00 -5.797193e-09
-8.600000e+00 -6.924900e-09
-8.590000e+00 -7.995206e-09
-8.580000e+00 -8.999289e-09
-8.570000e+00 -9.928933e-09
-8.560000e+00 -1.077659e-08
-8.550000e+00 -1.153543e-08
-8.540000e+00 -1.219942e-08
-8.530000e+00 -1.276331e-08
-8.520000e+00 -1.322272e-08
-8.510000e+00 -1.357415e-08
-8.500000e+00 -1.381499e-08
-8.490000e+00 -1.394355e-08
-8.480000e+00 -1.395906e-08
-8.470000e+00 -1.386165e-08
-8.460000e+00 -1.365238e-08
-8.450000e+00 -1.333319e-08
-8.440001e+00 -1.290691e-08
-8.430000e+00 -1.237720e-08
-8.420000e+00 -1.174855e-08
-8.410000e+00 -1.102622e-08
-8.400000e+00 -1.021619e-08
-8.390000e+00 -9.325127e-09
-8.380000e+00 -8.360343e-09
-8.370000e+00 -7.329707e-09
-8.360001e+00 -6.241602e-09
-8.350000e+00 -5.104857e-09
-8.340000e+00 -3.928678e-09
-8.330000e+00 -2.722582e-09
-8.320000e+00 -1.496317e-09
-8.310000e+00 -2.597911e-10
-8.300000e+00 9.769999e-10
-8.290000e+00 2.204054e-09
-8.280000e+00 3.411439e-09
-8.270000e+00 4.589368e-09
-8.260000e+00 5.728276e-09
-8.250000e+00 6.818897e-09
-8.240000e+00 7.852334e-09
-8.230000e+00 8.820138e-09
-8.220000e+00 9.714366e-09
-8.210000e+00 1.052766e-08
-8.200000e+00 1.125329e-08
-8.190001e+00 1.188524e-08
-8.180000e+00 1.241823e-08
-8.170000e+00 1.284779e-08
-8.160000e+00 1.317029e-08
-8.150000e+00 1.338295e-08
-8.140000e+00 1.348394e-08
-8.130000e+00 1.347232e-08
-8.120000e+00 1.334810e-08
-8.110001e+00 1.311226e-08
-8.100000e+00 1.276669e-08
-8.090000e+00 1.231425e-08
-8.080000e+00 1.175871e-08
-8.070000e+00 1.110474e-08
-8.060000e+00 1.035785e-08
-8.050000e+00 9.524388e-09
-8.040000e+00 8.611477e-09
-8.030000e+00 7.626942e-09
-8.020000e+00 6.579255e-09
-8.010000e+00 5.477473e-09
-8.000000e+00 4.331146e-09
-7.990000e+00 3.150246e-09
-7.980000e+00 1.945073e-09
-7.970000e+00 7.261681e-10
-7.960000e+00 -4.957842e-10
-7.950000e+00 -1.710051e-09
-7.940000e+00 -2.905948e-09
-7.930000e+00 -4.072939e-09
-7.920000e+00 -5.200735e-09
-7.910000e+00 -6.279385e-09
-7.900000e+00 -7.299371e-09
-7.890000e+00 -8.251704e-09
-7.880000e+00 -9.127999e-09
-7.870000e+00 -9.920558e-09
-7.860000e+00 -1.062245e-08
-7.850000e+00 -1.122755e-08
-7.840000e+00 -1.173065e-08
-7.830000e+00 -1.212745e-08
-7.820000e+00 -1.241463e-08
-7.810000e+00 -1.258988e-08
-7.800000e+00 -1.265189e-08
-7.790000e+00 -1.260043e-08
-7.780000e+00 -1.243625e-08
-7.770000e+00 -1.216118e-08
-7.760000e+00 -1.177802e-08
-7.750000e+00 -1.129055e-08
-7.740000e+00 -1.070349e-08
-7.730000e+00 -1.002247e-08
-7.720000e+00 -9.253920e-09
-7.710000e+00 -8.405047e-09
-7.700000e+00 -7.483761e-09
-7.690000e+00 -6.498584e-09
-7.680000e+00 -5.458573e-09
-7.670000e+00 -4.373235e-09
-7.660000e+00 -3.252431e-09
-7.650000e+00 -2.106287e-09
-7.640000e+00 -9.450983e-10
-7.630000e+00 2.207684e-10
-7.620000e+00 1.380966e-09
-7.610000e+00 2.525262e-09
-7.600000e+00 3.643627e-09
-7.590000e+00 4.726324e-09
-7.580000e+00 5.763990e-09
-7.570000e+00 6.747713e-09
-7.560000e+00 7.669104e-09
-7.550000e+00 8.520370e-09
-7.540000e+00 9.294362e-09
-7.530000e+00 9.984634e-09
-7.520000e+00 1.058549e-08
-7.510000e+00 1.109201e-08
-7.500000e+00 1.150009e-08
-7.490000e+00 1.180647e-08
-7.480000e+00 1.200872e-08
-7.470000e+00 1.210528e-08
-7.460000e+00 1.209543e-08
-7.450000e+00 1.197930e-08
-7.440000e+00 1.175786e-08
-7.430000e+00 1.143285e-08
-7.420000e+00 1.100682e-08
-7.410000e+00 1.048306e-08
-7.400000e+00 9.865562e-09
-7.390000e+00 9.158974e-09
-7.380000e+00 8.368569e-09
-7.370000e+00 7.500179e-09
-7.360000e+00 6.560154e-09
-7.350000e+00 5.555293e-09
-7.340000e+00 4.492798e-09
-7.330000e+00 3.380208e-09
-7.320000e+00 2.225338e-09
-7.310000e+00 1.036225e-09
-7.300000e+00 -1.789425e-10
-7.290000e+00 -1.411877e-09
-7.280000e+00 -2.654256e-09
-7.270000e+00 -3.897784e-09
-7.260000e+00 -5.134245e-09
-7.250000e+00 -6.355565e-09
-7.240000e+00 -7.553868e-09
-7.230000e+00 -8.721520e-09
-7.220000e+00 -9.851198e-09
-7.210000e+00 -1.093592e-08
-7.200000e+00 -1.196912e-08
-7.190000e+00 -1.294466e-08
-7.180000e+00 -1.385689e-08
-7.170000e+00 -1.470070e-08
-7.160000e+00 -1.547152e-08
-7.150000e+00 -1.616540e-08
-7.140000e+00 -1.677900e-08
-7.130000e+00 -1.730964e-08
-7.120000e+00 -1.775532e-08
-7.110000e+00 -1.811473e-08
-7.100000e+00 -1.838725e-08
-7.090000e+00 -1.857301e-08
-7.080000e+00 -1.867285e-08
-7.070000e+00 -1.868831e-08
-7.060000e+00 -1.862169e-08
-7.050000e+00 -1.847596e-08
-7.040000e+00 -1.825481e-08
-7.030000e+00 -1.796255e-08
-7.020000e+00 -1.760419e-08
-7.010000e+00 -1.718531e-08
-7.000000e+00 -1.671207e-08
-6.990000e+00 -1.619114e-08
-6.980000e+00 -1.562967e-08
-6.970000e+00 -1.503523e-08
-6.960000e+00 -1.441574e-08
-6.950000e+00 -1.377941e-08
-6.940000e+00 -1.313465e-08
-6.930000e+00 -1.249006e-08
-6.920000e+00 -1.185426e-08
-6.910000e+00 -1.123589e-08
-6.900000e+00 -1.064349e-08
-6.890000e+00 -1.008543e-08
-6.880000e+00 -9.569837e-09
-6.870000e+00 -9.104486e-09
-6.860000e+00 -8.696754e-09
-6.850000e+00 -8.353531e-09
-6.840000e+00 -8.081150e-09
-6.830000e+00 -7.885317e-09
-6.820000e+00 -7.771057e-09
-6.810000e+00 -7.742653e-09
-6.800000e+00 -7.803603e-09
-6.790000e+00 -7.956580e-09
-6.780000e+00 -8.203404e-09
-6.770000e+00 -8.545016e-09
-6.760000e+00 -8.981475e-09
-6.750000e+00 -9.511950e-09
-6.740000e+00 -1.013474e-08
-6.730000e+00 -1.084727e-08
-6.720000e+00 -1.164615e-08
-6.710000e+00 -1.252721e-08
-6.700000e+00 -1.348554e-08
-6.690000e+00 -1.451555e-08
-6.680000e+00 -1.561104e-08
-6.670000e+00 -1.676527e-08
-6.660000e+00 -1.797107e-08
-6.650000e+00 -1.922089e-08
-6.640000e+00 -2.050691e-08
-6.630000e+00 -2.182115e-08
-6.620000e+00 -2.315553e-08
-6.610000e+00 -2.450202e-08
-6.600000e+00 -2.585269e-08
-6.590000e+00 -2.719982e-08
-6.580000e+00 -2.853603e-08
-6.570000e+00 -2.985430e-08
-6.560000e+00 -3.114811e-08
-6.550000e+00 -3.241150e-08
-6.540000e+00 -3.363911e-08
-6.530000e+00 -3.482629e-08
-6.520000e+00 -3.596907e-08
-6.510000e+00 -3.706430e-08
-6.500000e+00 -3.810957e-08
-6.490000e+00 -3.910332e-08
-6.480000e+00 -4.004477e-08
-6.470000e+00 -4.093395e-08
-6.460000e+00 -4.177169e-08
-6.450000e+00 -4.255955e-08
-6.440000e+00 -4.329980e-08
-6.430000e+00 -4.399541e-08
-6.420000e+00 -4.464992e-08
-6.410000e+00 -4.526742e-08
-6.400000e+00 -4.585249e-08
-6.390000e+00 -4.641006e-08
-6.380000e+00 -4.694540e-08
-6.370000e+00 -4.746400e-08
-6.360000e+00 -4.797148e-08
-6.350000e+00 -4.847355e-08
-6.340000e+00 -4.897585e-08
-6.330000e+00 -4.948395e-08
-6.320000e+00 -5.000322e-08
-6.310000e+00 -5.053881e-08
-6.300000e+00 -5.109552e-08
-6.290000e+00 -5.167783e-08
-6.280000e+00 -5.228977e-08
-6.270000e+00 -5.293495e-08
-6.260000e+00 -5.361649e-08
-6.250000e+00 -5.433700e-08
-6.240000e+00 -5.509864e-08
-6.230000e+00 -5.590302e-08
-6.220000e+00 -5.675128e-08
-6.210000e+00 -5.764411e-08
-6.200000e+00 -5.858174e-08
-6.190000e+00 -5.956402e-08
-6.180000e+00 -6.059043e-08
-6.170000e+00 -6.166015e-08
-6.160000e+00 -6.277210e-08
-6.150000e+00 -6.392504e-08
-6.140000e+00 -6.511755e-08
-6.130000e+00 -6.634816e-08
-6.120000e+00 -6.761539e-08
-6.110000e+00 -6.891779e-08
-6.100000e+00 -7.025401e-08
-6.090000e+00 -7.162286e-08
-6.080000e+00 -7.302334e-08
-6.070000e+00 -7.445465e-08
-6.060000e+00 -7.591631e-08
-6.050000e+00 -7.740808e-08
-6.040000e+00 -7.893004e-08
-6.030000e+00 -8.048258e-08
-6.020000e+00 -8.206639e-08
-6.010000e+00 -8.368246e-08
-6.000000e+00 -8.533205e-08
-5.990000e+00 -8.701668e-08
-5.980000e+00 -8.873810e-08
-5.970000e+00 -9.049819e-08
-5.960000e+00 -9.229902e-08
-5.950000e+00 -9.414269e-08
-5.940000e+00 -9.603137e-08
-5.930000e+00 -9.796718e-08
-5.920000e+00 -9.995216e-08
-5.910000e+00 -1.019882e-07
-5.900000e+00 -1.040771e-07
-5.890000e+00 -1.062202e-07
-5.880000e+00 -1.084187e-07
-5.870000e+00 -1.106737e-07
-5.860000e+00 -1.129855e-07
-5.850000e+00 -1.153543e-07
-5.840000e+00 -1.177798e-07
-5.830000e+00 -1.202616e-07
-5.820000e+00 -1.227984e-07
-5.810000e+00 -1.253890e-07
-5.800000e+00 -1.280315e-07
-5.790000e+00 -1.307239e-07
-5.780000e+00 -1.334639e-07
-5.770000e+00 -1.362488e-07
-5.760000e+00 -1.390760e-07
-5.750000e+00 -1.419425e-07
-5.740000e+00 -1.448456e-07
-5.730000e+00 -1.477823e-07
-5.720000e+00 -1.507501e-07
-5.710000e+00 -1.537464e-07
-5.700000e+00 -1.567689e-07
-5.690000e+00 -1.598158e-07
-5.680000e+00 -1.628856e-07
-5.670000e+00 -1.659773e-07
-5.660000e+00 -1.690905e-07
-5.650000e+00 -1.722253e-07
-5.640000e+00 -1.753826e-07
-5.630000e+00 -1.785637e-07
-5.620000e+00 -1.817707e-07
-5.610000e+00 -1.850065e-07
-5.600000e+00 -1.882743e-07
-5.590000e+00 -1.915784e-07
-5.580000e+00 -1.949233e-07
-5.570000e+00 -1.983143e-07
-5.560000e+00 -2.017570e-07
-5.550000e+00 -2.052576e-07
-5.540000e+00 -2.088225e-07
-5.530000e+00 -2.124584e-07
-5.520000e+00 -2.161720e-07
-5.510000e+00 -2.199702e-07
-5.500000e+00 -2.238596e-07
-5.490000e+00 -2.278468e-07
-5.480000e+00 -2.319381e-07
-5.470000e+00 -2.361391e-07
-5.460000e+00 -2.404552e-07
-5.450000e+00 -2.448910e-07
-5.440000e+00 -2.494504e-07
-5.430000e+00 -2.541366e-07
-5.420000e+00 -2.589518e-07
-5.410000e+00 -2.638974e-07
-5.400000e+00 -2.689738e-07
-5.390000e+00 -2.741806e-07
-5.380000e+00 -2.795162e-07
-5.370000e+00 -2.849782e-07
-5.360000e+00 -2.905633e-07
-5.350000e+00 -2.962673e-07
-5.340000e+00 -3.020853e-07
-5.330000e+00 -3.080116e-07
-5.320000e+00 -3.140401e-07
-5.310000e+00 -3.201640e-07
-5.300000e+00 -3.263764e-07
-5.290000e+00 -3.326699e-07
-5.280000e+00 -3.390375e-07
-5.270000e+00 -3.454720e-07
-5.260000e+00 -3.519665e-07
-5.250000e+00 -3.585145e-07
-5.240000e+00 -3.651101e-07
-5.230000e+00 -3.717483e-07
-5.220000e+00 -3.784247e-07
-5.210000e+00 -3.851360e-07
-5.200000e+00 -3.918800e-07
-5.190000e+00 -3.986556e-07
-5.180000e+00 -4.054632e-07
-5.170000e+00 -4.123042e-07
-5.160000e+00 -4.191817e-07
-5.150000e+00 -4.260999e-07
-5.140000e+00 -4.330645e-07
-5.130000e+00 -4.400826e-07
-5.120000e+00 -4.471623e-07
-5.110000e+00 -4.543132e-07
-5.100000e+00 -4.615457e-07
-5.090000e+00 -4.688715e-07
-5.080000e+00 -4.763029e-07
-5.070000e+00 -4.838528e-07
-5.060000e+00 -4.915348e-07
-5.050000e+00 -4.993625e-07
-5.040000e+00 -5.073500e-07
-5.030000e+00 -5.155109e-07
-5.020000e+00 -5.238588e-07
-5.010000e+00 -5.324068e-07
-5.000000e+00 -5.411670e-07
-4.990000e+00 -5.501511e-07
-4.980000e+00 -5.593693e-07
-4.970000e+00 -5.688310e-07
-4.960000e+00 -5.785440e-07
-4.950000e+00 -5.885148e-07
-4.940000e+00 -5.987481e-07
-4.930000e+00 -6.092475e-07
-4.920000e+00 -6.200145e-07
-4.910000e+00 -6.310491e-07
-4.900000e+00 -6.423498e-07
-4.890000e+00 -6.539132e-07
-4.880000e+00 -6.657345e-07
-4.870000e+00 -6.778076e-07
-4.860000e+00 -6.901251e-07
-4.850000e+00 -7.026784e-07
-4.840000e+00 -7.154580e-07
-4.830000e+00 -7.284536e-07
-4.820000e+00 -7.416544e-07
-4.810000e+00 -7.550491e-07
-4.800000e+00 -7.686266e-07
-4.790000e+00 -7.823759e-07
-4.780000e+00 -7.962860e-07
-4.770000e+00 -8.103470e-07
-4.760000e+00 -8.245497e-07
-4.750000e+00 -8.388858e-07
-4.740000e+00 -8.533485e-07
-4.730000e+00 -8.679323e-07
-4.720000e+00 -8.826333e-07
-4.710000e+00 -8.974496e-07
-4.700000e+00 -9.123808e-07
-4.690000e+00 -9.274285e-07
-4.680000e+00 -9.425963e-07
-4.670000e+00 -9.578899e-07
-4.660000e+00 -9.733168e-07
-4.650000e+00 -9.888864e-07
-4.640000e+00 -1.004610e-06
-4.630000e+00 -1.020500e-06
-4.620000e+00 -1.036572e-06
-4.610000e+00 -1.052840e-06
-4.600000e+00 -1.069322e-06
-4.590000e+00 -1.086036e-06
-4.580000e+00 -1.103001e-06
-4.570000e+00 -1.120234e-06
-4.560000e+00 -1.137755e-06
-4.550000e+00 -1.155584e-06
-4.540000e+00 -1.173738e-06
-4.530000e+00 -1.192236e-06
-4.520000e+00 -1.211094e-06
-4.510000e+00 -1.230329e-06
-4.500000e+00 -1.249954e-06
-4.490000e+00 -1.269984e-06
-4.480000e+00 -1.290429e-06
-4.470000e+00 -1.311298e-06
-4.460000e+00 -1.332599e-06
-4.450000e+00 -1.354337e-06
-4.440000e+00 -1.376516e-06
-4.430000e+00 -1.399136e-06
-4.420000e+00 -1.422196e-06
-4.410000e+00 -1.445693e-06
-4.400000e+00 -1.469623e-06
-4.390000e+00 -1.493979e-06
-4.380000e+00 -1.518752e-06
-4.370000e+00 -1.543933e-06
-4.360000e+00 -1.569511e-06
-4.350000e+00 -1.595474e-06
-4.340000e+00 -1.621810e-06
-4.330000e+00 -1.648506e-06
-4.320000e+00 -1.675549e-06
-4.310000e+00 -1.702927e-06
-4.300000e+00 -1.730628e-06
-4.290000e+00 -1.758640e-06
-4.280000e+00 -1.786953e-06
-4.270000e+00 -1.815558e-06
-4.260000e+00 -1.844448e-06
-4.250000e+00 -1.873618e-06
-4.240000e+00 -1.903063e-06
-4.230000e+00 -1.932784e-06
-4.220000e+00 -1.962779e-06
-4.210000e+00 -1.993053e-06
-4.200000e+00 -2.023610e-06
-4.190000e+00 -2.054460e-06
-4.180000e+00 -2.085611e-06
-4.170000e+00 -2.117076e-06
-4.160000e+00 -2.148870e-06
-4.150000e+00 -2.181010e-06
-4.140000e+00 -2.213513e-06
-4.130000e+00 -2.246399e-06
-4.120000e+00 -2.279689e-06
-4.110000e+00 -2.313407e-06
-4.100000e+00 -2.347574e-06
-4.090000e+00 -2.382214e-06
-4.080000e+00 -2.417350e-06
-4.070000e+00 -2.453007e-06
-4.060000e+00 -2.489208e-06
-4.050000e+00 -2.525975e-06
-4.040000e+00 -2.563329e-06
-4.030000e+00 -2.601290e-06
-4.020000e+00 -2.639877e-06
-4.010000e+00 -2.679109e-06
-4.000000e+00 -2.718997e-06
-3.990000e+00 -2.759557e-06
-3.980000e+00 -2.800800e-06
-3.970000e+00 -2.842733e-06
-3.960000e+00 -2.885363e-06
-3.950000e+00 -2.928694e-06
-3.940001e+00 -2.972729e-06
-3.930000e+00 -3.017467e-06
-3.920000e+00 -3.062906e-06
-3.910000e+00 -3.109043e-06
-3.900001e+00 -3.155870e-06
-3.890000e+00 -3.203383e-06
-3.880000e+00 -3.251571e-06
-3.870000e+00 -3.300427e-06
-3.860001e+00 -3.349941e-06
-3.850000e+00 -3.400103e-06
-3.840000e+00 -3.450903e-06
-3.830000e+00 -3.502331e-06
-3.820001e+00 -3.554378e-06
-3.810000e+00 -3.607037e-06
-3.800000e+00 -3.660300e-06
-3.790000e+00 -3.714161e-06
-3.780000e+00 -3.768617e-06
-3.770000e+00 -3.823666e-06
-3.760000e+00 -3.879308e-06
-3.750000e+00 -3.935544e-06
-3.740000e+00 -3.992379e-06
-3.730000e+00 -4.049819e-06
-3.720000e+00 -4.107873e-06
-3.710000e+00 -4.166552e-06
-3.700000e+00 -4.225869e-06
-3.690001e+00 -4.285840e-06
-3.680000e+00 -4.346481e-06
-3.670000e+00 -4.407812e-06
-3.660000e+00 -4.469853e-06
-3.650001e+00 -4.532626e-06
-3.640000e+00 -4.596153e-06
-3.630000e+00 -4.660459e-06
-3.620000e+00 -4.725568e-06
-3.610001e+00 -4.791503e-06
-3.600000e+00 -4.858289e-06
-3.590000e+00 -4.925950e-06
-3.580000e+00 -4.994509e-06
-3.570001e+00 -5.063988e-06
-3.560000e+00 -5.134409e-06
-3.550000e+00 -5.205790e-06
-3.540000e+00 -5.278150e-06
-3.530000e+00 -5.351505e-06
-3.520000e+00 -5.425868e-06
-3.510000e+00 -5.501252e-06
-3.500000e+00 -5.577669e-06
-3.490000e+00 -5.655123e-06
-3.480000e+00 -5.733622e-06
-3.470000e+00 -5.813170e-06
-3.460000e+00 -5.893768e-06
-3.450000e+00 -5.975417e-06
-3.440001e+00 -6.058113e-06
-3.430000e+00 -6.141855e-06
-3.420000e+00 -6.226638e-06
-3.410000e+00 -6.312455e-06
-3.400001e+00 -6.399302e-06
-3.390000e+00 -6.487172e-06
-3.380000e+00 -6.576057e-06
-3.370000e+00 -6.665953e-06
-3.360001e+00 -6.756851e-06
-3.350000e+00 -6.848747e-06
-3.340000e+00 -6.941636e-06
-3.330000e+00 -7.035517e-06
-3.320001e+00 -7.130385e-06
-3.310000e+00 -7.226242e-06
-3.300000e+00 -7.323091e-06
-3.290000e+00 -7.420933e-06
-3.280000e+00 -7.519777e-06
-3.270000e+00 -7.619631e-06
-3.260000e+00 -7.720504e-06
-3.250000e+00 -7.822410e-06
-3.240000e+00 -7.925366e-06
-3.230000e+00 -8.029386e-06
-3.220000e+00 -8.134492e-06
-3.210000e+00 -8.240703e-06
-3.200000e+00 -8.348045e-06
-3.190001e+00 -8.456541e-06
-3.180000e+00 -8.566215e-06
-3.170000e+00 -8.677095e-06
-3.160000e+00 -8.789209e-06
-3.150001e+00 -8.902586e-06
-3.140000e+00 -9.017250e-06
-3.130000e+00 -9.133232e-06
-3.120000e+00 -9.250560e-06
-3.110001e+00 -9.369258e-06
-3.100000e+00 -9.489353e-06
-3.090000e+00 -9.610871e-06
-3.080000e+00 -9.733832e-06
-3.070001e+00 -9.858258e-06
-3.060000e+00 -9.984170e-06
-3.050000e+00 -1.011159e-05
-3.040000e+00 -1.024052e-05
-3.030000e+00 -1.037099e-05
-3.020000e+00 -1.050300e-05
-3.010000e+00 -1.063657e-05
-3.000000e+00 -1.077170e-05
-2.990000e+00 -1.090839e-05
-2.980000e+00 -1.104666e-05
-2.970000e+00 -1.118650e-05
-2.960000e+00 -1.132791e-05
-2.950000e+00 -1.147089e-05
-2.940001e+00 -1.161545e-05
-2.930000e+00 -1.176157e-05
-2.920000e+00 -1.190926e-05
-2.910000e+00 -1.205851e-05
-2.900001e+00 -1.220931e-05
-2.890000e+00 -1.236167e-05
-2.880000e+00 -1.251559e-05
-2.870000e+00 -1.267105e-05
-2.860001e+00 -1.282806e-05
-2.850000e+00 -1.298662e-05
-2.840000e+00 -1.314673e-05
-2.830000e+00 -1.330839e-05
-2.820001e+00 -1.347160e-05
-2.810000e+00 -1.363638e-05
-2.800000e+00 -1.380272e-05
-2.790000e+00 -1.397065e-05
-2.780000e+00 -1.414016e-05
-2.770000e+00 -1.431128e-05
-2.760000e+00 -1.448401e-05
-2.750000e+00 -1.465837e-05
-2.740000e+00 -1.483439e-05
-2.730000e+00 -1.501207e-05
-2.720000e+00 -1.519143e-05
-2.710000e+00 -1.537251e-05
-2.700000e+00 -1.555531e-05
-2.690001e+00 -1.573986e-05
-2.680000e+00 -1.592619e-05
-2.670000e+00 -1.611431e-05
-2.660000e+00 -1.630424e-05
-2.650001e+00 -1.649601e-05
-2.640000e+00 -1.668963e-05
-2.630000e+00 -1.688513e-05
-2.620000e+00 -1.708252e-05
-2.610001e+00 -1.728183e-05
-2.600000e+00 -1.748307e-05
-2.590000e+00 -1.768625e-05
-2.580000e+00 -1.789140e-05
-2.570001e+00 -1.809851e-05
-2.560000e+00 -1.830761e-05
-2.550000e+00 -1.851870e-05
-2.540000e+00 -1.873179e-05
-2.530001e+00 -1.894690e-05
-2.520000e+00 -1.916402e-05
-2.510000e+00 -1.938316e-05
-2.500000e+00 -1.960434e-05
-2.490000e+00 -1.982754e-05
-2.480000e+00 -2.005279e-05
-2.470000e+00 -2.028007e-05
-2.460000e+00 -2.050940e-05
-2.450000e+00 -2.074078e-05
-2.440001e+00 -2.097422e-05
-2.430000e+00 -2.120972e-05
-2.420000e+00 -2.144728e-05
-2.410000e+00 -2.168692e-05
-2.400001e+00 -2.192864e-05
-2.390000e+00 -2.217244e-05
-2.380000e+00 -2.241835e-05
-2.370000e+00 -2.266637e-05
-2.360001e+00 -2.291652e-05
-2.350000e+00 -2.316881e-05
-2.340000e+00 -2.342325e-05
-2.330000e+00 -2.367987e-05
-2.320001e+00 -2.393867e-05
-2.310000e+00 -2.419968e-05
-2.300000e+00 -2.446293e-05
-2.290000e+00 -2.472842e-05
-2.280001e+00 -2.499618e-05
-2.270000e+00 -2.526623e-05
-2.260000e+00 -2.553860e-05
-2.250000e+00 -2.581330e-05
-2.240000e+00 -2.609035e-05
-2.230000e+00 -2.636978e-05
-2.220000e+00 -2.665160e-05
-2.210000e+00 -2.693584e-05
-2.200000e+00 -2.722250e-05
-2.190001e+00 -2.751161e-05
-2.180000e+00 -2.780319e-05
-2.170000e+00 -2.809723e-05
-2.160000e+00 -2.839377e-05
-2.150001e+00 -2.869279e-05
-2.140000e+00 -2.899432e-05
-2.130000e+00 -2.929836e-05
-2.120000e+00 -2.960491e-05
-2.110001e+00 -2.991396e-05
-2.100000e+00 -3.022554e-05
-2.090000e+00 -3.053962e-05
-2.080000e+00 -3.085622e-05
-2.070001e+00 -3.117532e-05
-2.060000e+00 -3.149691e-05
-2.050000e+00 -3.182101e-05
-2.040000e+00 -3.214759e-05
-2.030001e+00 -3.247664e-05
-2.020000e+00 -3.280817e-05
-2.010000e+00 -3.314217e-05
-2.000000e+00 -3.347862e-05
-1.990000e+00 -3.381753e-05
-1.980000e+00 -3.415888e-05
-1.970000e+00 -3.450267e-05
-1.960000e+00 -3.484890e-05
-1.950000e+00 -3.519757e-05
-1.940001e+00 -3.554867e-05
-1.930000e+00 -3.590222e-05
-1.920000e+00 -3.625820e-05
-1.910000e+00 -3.661663e-05
-1.900001e+00 -3.697751e-05
-1.890000e+00 -3.734085e-05
-1.880000e+00 -3.770666e-05
-1.870000e+00 -3.807495e-05
-1.860001e+00 -3.844574e-05
-1.850000e+00 -3.881903e-05
-1.840000e+00 -3.919485e-05
-1.830000e+00 -3.957321e-05
-1.820001e+00 -3.995412e-05
-1.810000e+00 -4.033761e-05
-1.800000e+00 -4.072368e-05
-1.790000e+00 -4.111237e-05
-1.780001e+00 -4.150368e-05
-1.770000e+00 -4.189764e-05
-1.760000e+00 -4.229425e-05
-1.750000e+00 -4.269353e-05
-1.740000e+00 -4.309550e-05
-1.730000e+00 -4.350016e-05
-1.720000e+00 -4.390753e-05
-1.710000e+00 -4.431761e-05
-1.700000e+00 -4.473041e-05
-1.690001e+00 -4.514593e-05
-1.680000e+00 -4.556419e-05
-1.670000e+00 -4.598516e-05
-1.660000e+00 -4.640886e-05
-1.650001e+00 -4.683527e-05
-1.640000e+00 -4.726441e-05
-1.630000e+00 -4.769623e-05
-1.620000e+00 -4.813077e-05
-1.610001e+00 -4.856797e-05
-1.600000e+00 -4.900786e-05
-1.590000e+00 -4.945039e-05
-1.580000e+00 -4.989558e-05
-1.570001e+00 -5.034339e-05
-1.560000e+00 -5.079382e-05
-1.550000e+00 -5.124685e-05
-1.540000e+00 -5.170246e-05
-1.530001e+00 -5.216065e-05
-1.520000e+00 -5.262140e-05
-1.510000e+00 -5.308469e-05
-1.500000e+00 -5.355052e-05
-1.490000e+00 -5.401887e-05
-1.480000e+00 -5.448974e-05
-1.470000e+00 -5.496313e-05
-1.460000e+00 -5.543901e-05
-1.450000e+00 -5.591740e-05
-1.440001e+00 -5.639829e-05
-1.430000e+00 -5.688167e-05
-1.420000e+00 -5.736755e-05
-1.410000e+00 -5.785593e-05
-1.400001e+00 -5.834681e-05
-1.390000e+00 -5.884020e-05
-1.380000e+00 -5.933609e-05
-1.370000e+00 -5.983449e-05
-1.360001e+00 -6.033540e-05
-1.350000e+00 -6.083883e-05
-1.340000e+00 -6.134478e-05
-1.330000e+00 -6.185326e-05
-1.320001e+00 -6.236426e-05
-1.310000e+00 -6.287777e-05
-1.300000e+00 -6.339380e-05
-1.290000e+00 -6.391235e-05
-1.280001e+00 -6.443339e-05
-1.270000e+00 -6.495693e-05
-1.260000e+00 -6.548296e-05
-1.250000e+00 -6.601146e-05
-1.240000e+00 -6.654241e-05
-1.230000e+00 -6.707579e-05
-1.220000e+00 -6.761159e-05