-1.200000e+01 0.000000e+00
-1.199000e+01 0.000000e+00
-1.198000e+01 0.000000e+00
-1.197000e+01 0.000000e+00
-1.196000e+01 0.000000e+00
-1.195000e+01 0.000000e+00
-1.194000e+01 0.000000e+00
-1.193000e+01 -5.955499e-37
-1.192000e+01 -1.109131e-35
-1.191000e+01 -1.082050e-34
-1.190000e+01 -7.361099e-34
-1.189000e+01 -3.922711e-33
-1.188000e+01 -1.744249e-32
-1.187000e+01 -6.732269e-32
-1.186000e+01 -2.316980e-31
-1.185000e+01 -7.249482e-31
-1.184000e+01 -2.092352e-30
-1.183000e+01 -5.633793e-30
-1.182000e+01 -1.427875e-29
-1.181000e+01 -3.431209e-29
-1.180000e+01 -7.864273e-29
-1.179000e+01 -1.727754e-28
-1.178000e+01 -3.653736e-28
-1.177000e+01 -7.464075e-28
-1.176000e+01 -1.477517e-27
-1.175000e+01 -2.841599e-27
-1.174000e+01 -5.322012e-27
-1.173000e+01 -9.726529e-27
-1.172000e+01 -1.737766e-26
-1.171000e+01 -3.039979e-26
-1.170000e+01 -5.214533e-26
-1.169000e+01 -8.781736e-26
-1.168000e+01 -1.453665e-25
-1.167000e+01 -2.367651e-25
-1.166000e+01 -3.797938e-25
-1.165000e+01 -6.005167e-25
-1.164000e+01 -9.366699e-25
-1.163000e+01 -1.442250e-24
-1.162000e+01 -2.193657e-24
-1.161000e+01 -3.297845e-24
-1.160000e+01 -4.903016e-24
-1.159000e+01 -7.212526e-24
-1.158000e+01 -1.050280e-23
-1.157000e+01 -1.514623e-23
-1.156000e+01 -2.164008e-23
-1.155000e+01 -3.064291e-23
-1.154000e+01 -4.301975e-23
-1.153000e+01 -5.989797e-23
-1.152000e+01 -8.273570e-23
-1.151000e+01 -1.134049e-22
-1.150000e+01 -1.542917e-22
-1.149000e+01 -2.084159e-22
-1.148000e+01 -2.795738e-22
-1.147000e+01 -3.725052e-22
-1.146000e+01 -4.930895e-22
-1.145000e+01 -6.485725e-22
-1.144000e+01 -8.478274e-22
-1.143000e+01 -1.101653e-21
-1.142000e+01 -1.423108e-21
-1.141000e+01 -1.827891e-21
-1.140000e+01 -2.334759e-21
-1.139000e+01 -2.965986e-21
-1.138000e+01 -3.747863e-21
-1.137000e+01 -4.711242e-21
-1.136000e+01 -5.892102e-21
-1.135000e+01 -7.332156e-21
-1.134000e+01 -9.079456e-21
-1.133000e+01 -1.118903e-20
-1.132000e+01 -1.372350e-20
-1.131000e+01 -1.675366e-20
-1.130000e+01 -2.035901e-20
-1.129000e+01 -2.462826e-20
-1.128000e+01 -2.965968e-20
-1.127000e+01 -3.556133e-20
-1.126000e+01 -4.245112e-20
-1.125000e+01 -5.045668e-20
-1.124000e+01 -5.971494e-20
-1.123000e+01 -7.037143e-20
-1.122000e+01 -8.257920e-20
-1.121000e+01 -9.649737e-20
-1.120000e+01 -1.122892e-19
-1.119000e+01 -1.301198e-19
-1.118000e+01 -1.501528e-19
-1.117000e+01 -1.725473e-19
-1.116000e+01 -1.974531e-19
-1.115000e+01 -2.250065e-19
-1.114000e+01 -2.553239e-19
-1.113000e+01 -2.884967e-19
-1.112000e+01 -3.245832e-19
-1.111000e+01 -3.636023e-19
-1.110000e+01 -4.055242e-19
-1.109000e+01 -4.502629e-19
-1.108000e+01 -4.976665e-19
-1.107000e+01 -5.475080e-19
-1.106000e+01 -5.994760e-19
-1.105000e+01 -6.531657e-19
-1.104000e+01 -7.080695e-19
-1.103000e+01 -7.635686e-19
-1.102000e+01 -8.189256e-19
-1.101000e+01 -8.732780e-19
-1.100000e+01 -9.256339e-19
-1.099000e+01 -9.748678e-19
-1.098000e+01 -1.019721e-18
-1.097000e+01 -1.058804e-18
-1.096000e+01 -1.090599e-18
-1.095000e+01 -1.113472e-18
-1.094000e+01 -1.125682e-18
-1.093000e+01 -1.125399e-18
-1.092000e+01 -1.110724e-18
-1.091000e+01 -1.079717e-18
-1.090000e+01 -1.030422e-18
-1.089000e+01 -9.609083e-19
-1.088000e+01 -8.693069e-19
-1.087000e+01 -7.538561e-19
-1.086000e+01 -6.129511e-19
-1.085000e+01 -4.451968e-19
-1.084000e+01 -2.494650e-19
-1.083000e+01 -2.495278e-20
-1.082000e+01 2.287556e-19
-1.081000e+01 5.116273e-19
-1.080000e+01 8.231199e-19
-1.079000e+01 1.162122e-18
-1.078000e+01 1.526898e-18
-1.077000e+01 1.915036e-18
-1.076000e+01 2.323409e-18
-1.075000e+01 2.748134e-18
-1.074000e+01 3.184554e-18
-1.073000e+01 3.627227e-18
-1.072000e+01 4.069923e-18
-1.071000e+01 4.505656e-18
-1.070000e+01 4.926713e-18
-1.069000e+01 5.324718e-18
-1.068000e+01 5.690705e-18
-1.067000e+01 6.015227e-18
-1.066000e+01 6.288472e-18
-1.065000e+01 6.500409e-18
-1.064000e+01 6.640958e-18
-1.063000e+01 6.700169e-18
-1.062000e+01 6.668436e-18
-1.061000e+01 6.536712e-18
-1.060000e+01 6.296744e-18
-1.059000e+01 5.941324e-18
-1.058000e+01 5.464526e-18
-1.057000e+01 4.861970e-18
-1.056000e+01 4.131053e-18
-1.055000e+01 3.271189e-18
-1.054000e+01 2.284019e-18
-1.053000e+01 1.173603e-18
-1.052000e+01 -5.342737e-20
-1.051000e+01 -1.387751e-18
-1.050000e+01 -2.817286e-18
-1.049000e+01 -4.327175e-18
-1.048000e+01 -5.899827e-18
-1.047000e+01 -7.515025e-18
-1.046000e+01 -9.150105e-18
-1.045000e+01 -1.078020e-17
-1.044000e+01 -1.237858e-17
-1.043000e+01 -1.391704e-17
-1.042000e+01 -1.536636e-17
-1.041000e+01 -1.669688e-17
-1.040000e+01 -1.787908e-17
-1.039000e+01 -1.888425e-17
-1.038000e+01 -1.968519e-17
-1.037000e+01 -2.025698e-17
-1.036000e+01 -2.057770e-17
-1.035000e+01 -2.062920e-17
-1.034000e+01 -2.039784e-17
-1.033000e+01 -1.987521e-17
-1.032000e+01 -1.905874e-17
-1.031000e+01 -1.795226e-17
-1.030000e+01 -1.656645e-17
-1.029000e+01 -1.491917e-17
-1.028000e+01 -1.303556e-17
-1.027000e+01 -1.094810e-17
-1.026000e+01 -8.696326e-18
-1.025000e+01 -6.326450e-18
-1.024000e+01 -3.890675e-18
-1.023000e+01 -1.446323e-18
-1.022000e+01 9.452960e-19
-1.021000e+01 3.220244e-18
-1.020000e+01 5.313548e-18
-1.019000e+01 7.160996e-18
-1.018000e+01 8.701128e-18
-1.017000e+01 9.877386e-18
-1.016000e+01 1.064038e-17
-1.015000e+01 1.095021e-17
-1.014000e+01 1.077886e-17
-1.013000e+01 1.011249e-17
-1.012000e+01 8.953656e-18
-1.011000e+01 7.323314e-18
-1.010000e+01 5.262625e-18
-1.009000e+01 2.834365e-18
-1.008000e+01 1.239494e-19
-1.007000e+01 -2.760055e-18
-1.006000e+01 -5.685982e-18
-1.005000e+01 -8.499765e-18
-1.004000e+01 -1.102635e-17
-1.003000e+01 -1.307186e-17
-1.002000e+01 -1.442659e-17
-1.001000e+01 -1.486877e-17
-1.000000e+01 -1.416925e-17
-9.990000e+00 -1.209694e-17
-9.980000e+00 -8.425079e-18
-9.970000e+00 -2.938208e-18
-9.960000e+00 4.560164e-18
-9.950000e+00 1.423939e-17
-9.940001e+00 2.623308e-17
-9.930000e+00 4.063026e-17
-9.920000e+00 5.746648e-17
-9.910000e+00 7.671507e-17
-9.900000e+00 9.827872e-17
-9.890000e+00 1.219818e-16
-9.880000e+00 1.475636e-16
-9.870000e+00 1.746724e-16
-9.860001e+00 2.028615e-16
-9.850000e+00 2.315867e-16
-9.840000e+00 2.602059e-16
-9.830000e+00 2.879807e-16
-9.820000e+00 3.140809e-16
-9.809999e+00 3.375915e-16
-9.800000e+00 3.575225e-16
-9.790000e+00 3.728219e-16
-9.780000e+00 3.823915e-16
-9.770000e+00 3.851059e-16
-9.760000e+00 3.798347e-16
-9.750000e+00 3.654674e-16
-9.740000e+00 3.409405e-16
-9.730000e+00 3.052677e-16
-9.720000e+00 2.575715e-16
-9.710000e+00 1.971169e-16
-9.700000e+00 1.233449e-16
-9.690001e+00 3.590749e-17
-9.680000e+00 -6.529867e-17
-9.670000e+00 -1.800992e-16
-9.660000e+00 -3.080114e-16
-9.650000e+00 -4.482166e-16
-9.640000e+00 -5.995361e-16
-9.630000e+00 -7.604124e-16
-9.620000e+00 -9.288956e-16
-9.610001e+00 -1.102637e-15
-9.600000e+00 -1.278890e-15
-9.590000e+00 -1.454521e-15
-9.580000e+00 -1.626022e-15
-9.570000e+00 -1.789547e-15
-9.559999e+00 -1.940943e-15
-9.550000e+00 -2.075802e-15
-9.540000e+00 -2.189519e-15
-9.530000e+00 -2.277359e-15
-9.520000e+00 -2.334540e-15
-9.510000e+00 -2.356319e-15
-9.500000e+00 -2.338089e-15
-9.490000e+00 -2.275486e-15
-9.480000e+00 -2.164497e-15
-9.470000e+00 -2.001576e-15
-9.460000e+00 -1.783766e-15
-9.450000e+00 -1.508812e-15
-9.440001e+00 -1.175283e-15
-9.430000e+00 -7.826839e-16
-9.420000e+00 -3.315606e-16
-9.410000e+00 1.764005e-16
-9.400000e+00 7.382889e-16
-9.390000e+00 1.349900e-15
-9.380000e+00 2.005682e-15
-9.370000e+00 2.698707e-15
-9.360001e+00 3.420658e-15
-9.350000e+00 4.161851e-15
-9.340000e+00 4.911274e-15
-9.330000e+00 5.656666e-15
-9.320000e+00 6.384613e-15
-9.309999e+00 7.080691e-15
-9.300000e+00 7.729625e-15
-9.290000e+00 8.315489e-15
-9.280000e+00 8.821936e-15
-9.270000e+00 9.232444e-15
-9.260000e+00 9.530607e-15
-9.250000e+00 9.700434e-15
-9.240000e+00 9.726673e-15
-9.230000e+00 9.595153e-15
-9.220000e+00 9.293128e-15
-9.210000e+00 8.809632e-15
-9.200000e+00 8.135832e-15
-9.190001e+00 7.265370e-15
-9.180000e+00 6.194688e-15
-9.170000e+00 4.923334e-15
-9.160000e+00 3.454239e-15
-9.150000e+00 1.793951e-15
-9.140000e+00 -4.717415e-17
-9.130000e+00 -2.054828e-15
-9.120000e+00 -4.210674e-15
-9.110001e+00 -6.492327e-15
-9.100000e+00 -8.873410e-15
-9.090000e+00 -1.132368e-14
-9.080000e+00 -1.380924e-14
-9.070000e+00 -1.629281e-14
-9.060000e+00 -1.873412e-14
-9.050000e+00 -2.109033e-14
-9.040000e+00 -2.331660e-14
-9.030000e+00 -2.536665e-14
-9.020000e+00 -2.719344e-14
-9.010000e+00 -2.874993e-14
-9.000000e+00 -2.998985e-14
-8.990000e+00 -3.086854e-14
-8.980000e+00 -3.134383e-14
-8.970000e+00 -3.137691e-14
-8.960000e+00 -3.093323e-14
-8.950000e+00 -2.998340e-14
-8.940001e+00 -2.850401e-14
-8.930000e+00 -2.647848e-14
-8.920000e+00 -2.389783e-14
-8.910000e+00 -2.076131e-14
-8.900000e+00 -1.707701e-14
-8.890000e+00 -1.286234e-14
-8.880000e+00 -8.144362e-15
-8.870000e+00 -2.960019e-15
-8.860001e+00 2.643833e-15
-8.850000e+00 8.610528e-15
-8.840000e+00 1.487386e-14
-8.830000e+00 2.135857e-14
-8.820000e+00 2.798096e-14
-8.810000e+00 3.464973e-14
-8.800000e+00 4.126696e-14
-8.790000e+00 4.772934e-14
-8.780000e+00 5.392942e-14
-8.770000e+00 5.975718e-14
-8.760000e+00 6.510156e-14
-8.750000e+00 6.985229e-14
-8.740000e+00 7.390160e-14
-8.730000e+00 7.714616e-14
-8.720000e+00 7.948901e-14
-8.710000e+00 8.084138e-14
-8.700000e+00 8.112472e-14
-8.690001e+00 8.027237e-14
-8.680000e+00 7.823140e-14
-8.670000e+00 7.496412e-14
-8.660000e+00 7.044957e-14
-8.650000e+00 6.468468e-14
-8.640000e+00 5.768530e-14
-8.630000e+00 4.948689e-14
-8.620000e+00 4.014502e-14
-8.610001e+00 2.973545e-14
-8.600000e+00 1.835395e-14
-8.590000e+00 6.115779e-15
-8.580000e+00 -6.845213e-15
-8.570000e+00 -2.037780e-14
-8.560000e+00 -3.431498e-14
-8.550000e+00 -4.847582e-14
-8.540000e+00 -6.266777e-14
-8.530000e+00 -7.668912e-14
-8.520000e+00 -9.033177e-14
-8.510000e+00 -1.033843e-13
-8.500000e+00 -1.156352e-13
-8.490000e+00 -1.268759e-13
-8.480000e+00 -1.369048e-13
-8.470000e+00 -1.455300e-13
-8.460000e+00 -1.525734e-13
-8.450000e+00 -1.578735e-13
-8.440001e+00 -1.612890e-13
-8.430000e+00 -1.627017e-13
-8.420000e+00 -1.620191e-13
-8.410000e+00 -1.591768e-13
-8.400000e+00 -1.541408e-13
-8.390000e+00 -1.469089e-13
-8.380000e+00 -1.375116e-13
-8.370000e+00 -1.260132e-13
-8.360001e+00 -1.125115e-13
-8.350000e+00 -9.713738e-14
-8.340000e+00 -8.005388e-14
-8.330000e+00 -6.145433e-14
-8.320000e+00 -4.156024e-14
-8.310000e+00 -2.061856e-14
-8.300000e+00 1.101666e-15
-8.290000e+00 2.331307e-14
-8.280000e+00 4.571415e-14
-8.270000e+00 6.799384e-14
-8.260000e+00 8.983641e-14
-8.250000e+00 1.109265e-13
-8.240000e+00 1.309546e-13
-8.230000e+00 1.496220e-13
-8.220000e+00 1.666462e-13
-8.210000e+00 1.817662e-13
-8.200000e+00 1.947471e-13
-8.190001e+00 2.053848e-13
-8.180000e+00 2.135101e-13
-8.170000e+00 2.189924e-13
-8.160000e+00 2.217424e-13
-8.150000e+00 2.217150e-13
-8.140000e+00 2.189102e-13
-8.130000e+00 2.133745e-13
-8.120000e+00 2.052007e-13
-8.110001e+00 1.945270e-13
-8.100000e+00 1.815351e-13
-8.090000e+00 1.664483e-13
-8.080000e+00 1.495271e-13
-8.070000e+00 1.310659e-13
-8.060000e+00 1.113873e-13
-8.050000e+00 9.083724e-14
-8.040000e+00 6.977807e-14
-8.030000e+00 4.858233e-14
-8.020000e+00 2.762551e-14
-8.010000e+00 7.278798e-15
-8.000000e+00 -1.209839e-14
-7.990000e+00 -3.016577e-14
-7.980000e+00 -4.660946e-14
-7.970000e+00 -6.114889e-14
-7.960000e+00 -7.354330e-14
-7.950000e+00 -8.359757e-14
-7.940000e+00 -9.116744e-14
-7.930000e+00 -9.616381e-14
-7.920000e+00 -9.855599e-14
-7.910000e+00 -9.837415e-14
-7.900000e+00 -9.571037e-14
-7.890000e+00 -9.071861e-14
-7.880000e+00 -8.361351e-14
-7.870000e+00 -7.466778e-14
-7.860000e+00 -6.420848e-14
-7.850000e+00 -5.261202e-14
-7.840000e+00 -4.029803e-14
-7.830000e+00 -2.772215e-14
-7.820000e+00 -1.536778e-14
-7.810000e+00 -3.737063e-15
-7.800000e+00 6.658902e-15
-7.790000e+00 1.531040e-14
-7.780000e+00 2.171977e-14
-7.770000e+00 2.541235e-14
-7.760000e+00 2.594731e-14
-7.750000e+00 2.292834e-14
-7.740000e+00 1.601387e-14
-7.730000e+00 4.926748e-15
-7.720000e+00 -1.053701e-14
-7.710000e+00 -3.050042e-14
-7.700000e+00 -5.499886e-14
-7.690000e+00 -8.397489e-14
-7.680000e+00 -1.172744e-13
-7.670000e+00 -1.546443e-13
-7.660000e+00 -1.957322e-13
-7.650000e+00 -2.400873e-13
-7.640000e+00 -2.871638e-13
-7.630000e+00 -3.363250e-13
-7.620000e+00 -3.868500e-13
-7.610000e+00 -4.379418e-13
-7.600000e+00 -4.887369e-13
-7.590000e+00 -5.383160e-13
-7.580000e+00 -5.857165e-13
-7.570000e+00 -6.299459e-13
-7.560000e+00 -6.699954e-13
-7.550000e+00 -7.048556e-13
-7.540000e+00 -7.335310e-13
-7.530000e+00 -7.550559e-13
-7.520000e+00 -7.685093e-13
-7.510000e+00 -7.730302e-13
-7.500000e+00 -7.678315e-13
-7.490000e+00 -7.522145e-13
-7.480000e+00 -7.255802e-13
-7.470000e+00 -6.874417e-13
-7.460000e+00 -6.374335e-13
-7.450000e+00 -5.753199e-13
-7.440000e+00 -5.010020e-13
-7.430000e+00 -4.145224e-13
-7.420000e+00 -3.160681e-13
-7.410000e+00 -2.059724e-13
-7.400000e+00 -8.471397e-14
-7.390000e+00 4.708525e-14
-7.380000e+00 1.886637e-13
-7.370000e+00 3.391259e-13
-7.360000e+00 4.974485e-13
-7.350000e+00 6.624890e-13
-7.340000e+00 8.329942e-13
-7.330000e+00 1.007610e-12
-7.320000e+00 1.184890e-12
-7.310000e+00 1.363311e-12
-7.300000e+00 1.541279e-12
-7.290000e+00 1.717139e-12
-7.280000e+00 1.889192e-12
-7.270000e+00 2.055700e-12
-7.260000e+00 2.214895e-12
-7.250000e+00 2.364994e-12
-7.240000e+00 2.504200e-12
-7.230000e+00 2.630715e-12
-7.220000e+00 2.742747e-12
-7.210000e+00 2.838515e-12
-7.200000e+00 2.916256e-12
-7.190000e+00 2.974230e-12
-7.180000e+00 3.010731e-12
-7.170000e+00 3.024087e-12
-7.160000e+00 3.012671e-12
-7.150000e+00 2.974909e-12
-7.140000e+00 2.909285e-12
-7.130000e+00 2.814356e-12
-7.120000e+00 2.688761e-12
-7.110000e+00 2.531237e-12
-7.100000e+00 2.340633e-12
-7.090000e+00 2.115931e-12
-7.080000e+00 1.856267e-12
-7.070000e+00 1.560953e-12
-7.060000e+00 1.229508e-12
-7.050000e+00 8.616819e-13
-7.040000e+00 4.574946e-13
-7.030000e+00 1.726501e-14
-7.020000e+00 -4.583505e-13
-7.010000e+00 -9.683208e-13
-7.000000e+00 -1.511201e-12
-6.990000e+00 -2.085094e-12
-6.980000e+00 -2.687613e-12
-6.970000e+00 -3.315844e-12
-6.960000e+00 -3.966315e-12
-6.950000e+00 -4.634960e-12
-6.940000e+00 -5.317100e-12
-6.930000e+00 -6.007422e-12
-6.920000e+00 -6.699965e-12
-6.910000e+00 -7.388117e-12
-6.900000e+00 -8.064622e-12
-6.890000e+00 -8.721598e-12
-6.880000e+00 -9.350560e-12
-6.870000e+00 -9.942470e-12
-6.860000e+00 -1.048778e-11
-6.850000e+00 -1.097651e-11
-6.840000e+00 -1.139832e-11
-6.830000e+00 -1.174264e-11
-6.820000e+00 -1.199872e-11
-6.810000e+00 -1.215582e-11
-6.800000e+00 -1.220332e-11
-6.790000e+00 -1.213087e-11
-6.780000e+00 -1.192857e-11
-6.770000e+00 -1.158713e-11
-6.760000e+00 -1.109807e-11
-6.750000e+00 -1.045388e-11
-6.740000e+00 -9.648265e-12
-6.730000e+00 -8.676276e-12
-6.720000e+00 -7.534545e-12
-6.710000e+00 -6.221463e-12
-6.700000e+00 -4.737350e-12
-6.690000e+00 -3.084636e-12
-6.680000e+00 -1.267999e-12
-6.670000e+00 7.054921e-13
-6.660000e+00 2.826272e-12
-6.650000e+00 5.082192e-12
-6.640000e+00 7.458464e-12
-6.630000e+00 9.937643e-12
-6.620000e+00 1.249963e-11
-6.610000e+00 1.512173e-11
-6.600000e+00 1.777874e-11
-6.590000e+00 2.044308e-11
-6.580000e+00 2.308495e-11
-6.570000e+00 2.567259e-11
-6.560000e+00 2.817249e-11
-6.550000e+00 3.054973e-11
-6.540000e+00 3.276828e-11
-6.530000e+00 3.479145e-11
-6.520000e+00 3.658224e-11
-6.510000e+00 3.810382e-11
-6.500000e+00 3.932002e-11
-6.490000e+00 4.019581e-11
-6.480000e+00 4.069782e-11
-6.470000e+00 4.079492e-11
-6.460000e+00 4.045868e-11
-6.450000e+00 3.966397e-11
-6.440000e+00 3.838947e-11
-6.430000e+00 3.661814e-11
-6.420000e+00 3.433778e-11
-6.410000e+00 3.154141e-11
-6.400000e+00 2.822773e-11
-6.390000e+00 2.440145e-11
-6.380000e+00 2.007362e-11
-6.370000e+00 1.526184e-11
-6.360000e+00 9.990463e-12
-6.350000e+00 4.290692e-12
-6.340000e+00 -1.799440e-12
-6.330000e+00 -8.235115e-12
-6.320000e+00 -1.496490e-11
-6.310000e+00 -2.193102e-11
-6.300000e+00 -2.906967e-11
-6.290000e+00 -3.631149e-11
-6.280000e+00 -4.358207e-11
-6.270000e+00 -5.080263e-11
-6.260000e+00 -5.789066e-11
-6.250000e+00 -6.476077e-11
-6.240000e+00 -7.132554e-11
-6.230000e+00 -7.749640e-11
-6.220000e+00 -8.318474e-11
-6.210000e+00 -8.830286e-11
-6.200000e+00 -9.276507e-11
-6.190000e+00 -9.648882e-11
-6.180000e+00 -9.939580e-11
-6.170000e+00 -1.014130e-10
-6.160000e+00 -1.024740e-10
-6.150000e+00 -1.025199e-10
-6.140000e+00 -1.015001e-10
-6.130000e+00 -9.937393e-11
-6.120000e+00 -9.611090e-11
-6.110000e+00 -9.169188e-11
-6.100000e+00 -8.610967e-11
-6.090000e+00 -7.936966e-11
-6.080000e+00 -7.149028e-11
-6.070000e+00 -6.250334e-11
-6.060000e+00 -5.245424e-11
-6.050000e+00 -4.140206e-11
-6.040000e+00 -2.941937e-11
-6.030000e+00 -1.659202e-11
-6.020000e+00 -3.018675e-12
-6.010000e+00 1.118976e-11
-6.000000e+00 2.591091e-11
-5.990000e+00 4.101188e-11
-5.980000e+00 5.635029e-11
-5.970000e+00 7.177553e-11
-5.960000e+00 8.713009e-11
-5.950000e+00 1.022511e-10
-5.940000e+00 1.169719e-10
-5.930000e+00 1.311237e-10
-5.920000e+00 1.445375e-10
-5.910000e+00 1.570456e-10
-5.900000e+00 1.684840e-10
-5.890000e+00 1.786940e-10
-5.880000e+00 1.875239e-10
-5.870000e+00 1.948315e-10
-5.860000e+00 2.004853e-10
-5.850000e+00 2.043668e-10
-5.840000e+00 2.063719e-10
-5.830000e+00 2.064125e-10
-5.820000e+00 2.044184e-10
-5.810000e+00 2.003381e-10
-5.800000e+00 1.941400e-10
-5.790000e+00 1.858138e-10
-5.780000e+00 1.753708e-10
-5.770000e+00 1.628448e-10
-5.760000e+00 1.482921e-10
-5.750000e+00 1.317921e-10
-5.740000e+00 1.134464e-10
-5.730000e+00 9.337923e-11
-5.720000e+00 7.173610e-11
-5.710000e+00 4.868332e-11
-5.700000e+00 2.440671e-11
-5.690000e+00 -8.897615e-13
-5.680000e+00 -2.698563e-11
-5.670000e+00 -5.364577e-11
-5.660000e+00 -8.062242e-11
-5.650000e+00 -1.076575e-10
-5.640000e+00 -1.344848e-10
-5.630000e+00 -1.608330e-10
-5.620000e+00 -1.864277e-10
-5.610000e+00 -2.109950e-10
-5.600000e+00 -2.342635e-10
-5.590000e+00 -2.559680e-10
-5.580000e+00 -2.758519e-10
-5.570000e+00 -2.936702e-10
-5.560000e+00 -3.091925e-10
-5.550000e+00 -3.222056e-10
-5.540000e+00 -3.325162e-10
-5.530000e+00 -3.399538e-10
-5.520000e+00 -3.443721e-10
-5.510000e+00 -3.456523e-10
-5.500000e+00 -3.437040e-10
-5.490000e+00 -3.384674e-10
-5.480000e+00 -3.299148e-10
-5.470000e+00 -3.180510e-10
-5.460000e+00 -3.029146e-10
-5.450000e+00 -2.845783e-10
-5.440000e+00 -2.631488e-10
-5.430000e+00 -2.387663e-10
-5.420000e+00 -2.116044e-10
-5.410000e+00 -1.818684e-10
-5.400000e+00 -1.497944e-10
-5.390000e+00 -1.156471e-10
-5.380000e+00 -7.971765e-11
-5.370000e+00 -4.232160e-11
-5.360000e+00 -3.795624e-12
-5.350000e+00 3.550536e-11
-5.340000e+00 7.521161e-11
-5.330000e+00 1.149422e-10
-5.320000e+00 1.543088e-10
-5.310000e+00 1.929197e-10
-5.300000e+00 2.303840e-10
-5.290000e+00 2.663155e-10
-5.280000e+00 3.003373e-10
-5.270000e+00 3.320862e-10
-5.260000e+00 3.612161e-10
-5.250000e+00 3.874029e-10
-5.240000e+00 4.103481e-10
-5.230000e+00 4.297825e-10
-5.220000e+00 4.454696e-10
-5.210000e+00 4.572089e-10
-5.200000e+00 4.648388e-10
-5.190000e+00 4.682389e-10
-5.180000e+00 4.673322e-10
-5.170000e+00 4.620861e-10
-5.160000e+00 4.525142e-10
-5.150000e+00 4.386768e-10
-5.140000e+00 4.206800e-10
-5.130000e+00 3.986765e-10
-5.120000e+00 3.728633e-10
-5.110000e+00 3.434811e-10
-5.100000e+00 3.108113e-10
-5.090000e+00 2.751738e-10
-5.080000e+00 2.369233e-10
-5.070000e+00 1.964460e-10
-5.060000e+00 1.541553e-10
-5.050000e+00 1.104870e-10
-5.040000e+00 6.589452e-11
-5.030000e+00 2.084357e-11
-5.020000e+00 -2.419332e-11
-5.010000e+00 -6.874257e-11
-5.000000e+00 -1.123353e-10
-4.990000e+00 -1.545134e-10
-4.980000e+00 -1.948348e-10
-4.970000e+00 -2.328801e-10
-4.960000e+00 -2.682570e-10
-4.950000e+00 -3.006066e-10
-4.940000e+00 -3.296074e-10
-4.930000e+00 -3.549805e-10
-4.920000e+00 -3.764931e-10
-4.910000e+00 -3.939622e-10
-4.900000e+00 -4.072573e-10
-4.890000e+00 -4.163024e-10
-4.880000e+00 -4.210779e-10
-4.870000e+00 -4.216207e-10
-4.860000e+00 -4.180244e-10
-4.850000e+00 -4.104381e-10
-4.840000e+00 -3.990652e-10
-4.830000e+00 -3.841601e-10
-4.820000e+00 -3.660255e-10
-4.810000e+00 -3.450081e-10
-4.800000e+00 -3.214937e-10
-4.790000e+00 -2.959017e-10
-4.780000e+00 -2.686795e-10
-4.770000e+00 -2.402951e-10
-4.760000e+00 -2.112307e-10
-4.750000e+00 -1.819749e-10
-4.740000e+00 -1.530154e-10
-4.730000e+00 -1.248307e-10
-4.720000e+00 -9.788278e-11
-4.710000e+00 -7.260893e-11
-4.700000e+00 -4.941440e-11
-4.690000e+00 -2.866514e-11
-4.680000e+00 -1.068098e-11
-4.670000e+00 4.270592e-12
-4.660000e+00 1.597997e-11
-4.650000e+00 2.430025e-11
-4.640000e+00 2.915113e-11
-4.630000e+00 3.052186e-11
-4.620000e+00 2.847319e-11
-4.610000e+00 2.313824e-11
-4.600000e+00 1.472214e-11
-4.590000e+00 3.500599e-12
-4.580000e+00 -1.018272e-11
-4.570000e+00 -2.592006e-11
-4.560000e+00 -4.324454e-11
-4.550000e+00 -6.163622e-11
-4.540000e+00 -8.052931e-11
-4.530000e+00 -9.932027e-11
-4.520000e+00 -1.173769e-10
-4.510000e+00 -1.340479e-10
-4.500000e+00 -1.486738e-10
-4.490000e+00 -1.605975e-10
-4.480000e+00 -1.691757e-10
-4.470000e+00 -1.737907e-10
-4.460000e+00 -1.738617e-10
-4.450000e+00 -1.688562e-10
-4.440000e+00 -1.583013e-10
-4.430000e+00 -1.417944e-10
-4.420000e+00 -1.190127e-10
-4.410000e+00 -8.972274e-11
-4.400000e+00 -5.378821e-11
-4.390000e+00 -1.117688e-11
-4.380000e+00 3.803376e-11
-4.370000e+00 9.365246e-11
-4.360000e+00 1.553715e-10
-4.350000e+00 2.227660e-10
-4.340000e+00 2.952943e-10
-4.330000e+00 3.723008e-10
-4.320000e+00 4.530203e-10
-4.310000e+00 5.365837e-10
-4.300000e+00 6.220263e-10
-4.290000e+00 7.082969e-10
-4.280000e+00 7.942688e-10
-4.270000e+00 8.787530e-10
-4.260000e+00 9.605114e-10
-4.250000e+00 1.038272e-09
-4.240000e+00 1.110746e-09
-4.230000e+00 1.176643e-09
-4.220000e+00 1.234689e-09
-4.210000e+00 1.283646e-09
-4.200000e+00 1.322327e-09
-4.190000e+00 1.349617e-09
-4.180000e+00 1.364488e-09
-4.170000e+00 1.366016e-09
-4.160000e+00 1.353399e-09
-4.150000e+00 1.325967e-09
-4.140000e+00 1.283203e-09
-4.130000e+00 1.224745e-09
-4.120000e+00 1.150406e-09
-4.110000e+00 1.060173e-09
-4.100000e+00 9.542181e-10
-4.090000e+00 8.329002e-10
-4.080000e+00 6.967659e-10
-4.070000e+00 5.465480e-10
-4.060000e+00 3.831621e-10
-4.050000e+00 2.076991e-10
-4.040000e+00 2.141706e-11
-4.030000e+00 -1.742709e-10
-4.020000e+00 -3.778102e-10
-4.010000e+00 -5.875206e-10
-4.000000e+00 -8.016147e-10
-3.990000e+00 -1.018217e-09
-3.980000e+00 -1.235386e-09
-3.970000e+00 -1.451138e-09
-3.960000e+00 -1.663467e-09
-3.950000e+00 -1.870375e-09
-3.940001e+00 -2.069894e-09
-3.930000e+00 -2.260109e-09
-3.920000e+00 -2.439190e-09
-3.910000e+00 -2.605409e-09
-3.900001e+00 -2.757168e-09
-3.890000e+00 -2.893020e-09
-3.880000e+00 -3.011694e-09
-3.870000e+00 -3.112109e-09
-3.860001e+00 -3.193392e-09
-3.850000e+00 -3.254897e-09
-3.840000e+00 -3.296216e-09
-3.830000e+00 -3.317187e-09
-3.820001e+00 -3.317902e-09
-3.810000e+00 -3.298711e-09
-3.800000e+00 -3.260224e-09
-3.790000e+00 -3.203309e-09
-3.780000e+00 -3.129084e-09
-3.770000e+00 -3.038911e-09
-3.760000e+00 -2.934386e-09
-3.750000e+00 -2.817319e-09
-3.740000e+00 -2.689726e-09
-3.730000e+00 -2.553801e-09
-3.720000e+00 -2.411899e-09
-3.710000e+00 -2.266511e-09
-3.700000e+00 -2.120236e-09
-3.690001e+00 -1.975758e-09
-3.680000e+00 -1.835815e-09
-3.670000e+00 -1.703168e-09
-3.660000e+00 -1.580577e-09
-3.650001e+00 -1.470763e-09
-3.640000e+00 -1.376386e-09
-3.630000e+00 -1.300011e-09
-3.620000e+00 -1.244080e-09
-3.610001e+00 -1.210887e-09
-3.600000e+00 -1.202552e-09
-3.590000e+00 -1.220995e-09
-3.580000e+00 -1.267917e-09
-3.570001e+00 -1.344778e-09
-3.560000e+00 -1.452783e-09
-3.550000e+00 -1.592867e-09
-3.540000e+00 -1.765682e-09
-3.530000e+00 -1.971591e-09
-3.520000e+00 -2.210661e-09
-3.510000e+00 -2.482663e-09
-3.500000e+00 -2.787069e-09
-3.490000e+00 -3.123065e-09
-3.480000e+00 -3.489545e-09
-3.470000e+00 -3.885134e-09
-3.460000e+00 -4.308189e-09
-3.450000e+00 -4.756826e-09
-3.440001e+00 -5.228931e-09
-3.430000e+00 -5.722177e-09
-3.420000e+00 -6.234056e-09
-3.410000e+00 -6.761896e-09
-3.400001e+00 -7.302886e-09
-3.390000e+00 -7.854108e-09
-3.380000e+00 -8.412556e-09
-3.370000e+00 -8.975177e-09
-3.360001e+00 -9.538887e-09
-3.350000e+00 -1.010061e-08
-3.340000e+00 -1.065729e-08
-3.330000e+00 -1.120595e-08
-3.320001e+00 -1.174370e-08
-3.310000e+00 -1.226774e-08
-3.300000e+00 -1.277543e-08
-3.290000e+00 -1.326431e-08
-3.280000e+00 -1.373208e-08
-3.270000e+00 -1.417666e-08
-3.260000e+00 -1.459620e-08
-3.250000e+00 -1.498910e-08
-3.240000e+00 -1.535400e-08
-3.230000e+00 -1.568984e-08
-3.220000e+00 -1.599582e-08
-3.210000e+00 -1.627144e-08
-3.200000e+00 -1.651650e-08
-3.190001e+00 -1.673110e-08
-3.180000e+00 -1.691563e-08
-3.170000e+00 -1.707077e-08
-3.160000e+00 -1.719752e-08
-3.150001e+00 -1.729714e-08
-3.140000e+00 -1.737117e-08
-3.130000e+00 -1.742142e-08
-3.120000e+00 -1.744995e-08
-3.110001e+00 -1.745905e-08
-3.100000e+00 -1.745122e-08
-3.090000e+00 -1.742916e-08
-3.080000e+00 -1.739573e-08
-3.070001e+00 -1.735396e-08
-3.060000e+00 -1.730699e-08
-3.050000e+00 -1.725805e-08
-3.040000e+00 -1.721046e-08
-3.030000e+00 -1.716756e-08
-3.020000e+00 -1.713271e-08
-3.010000e+00 -1.710926e-08
-3.000000e+00 -1.710050e-08
-2.990000e+00 -1.710965e-08
-2.980000e+00 -1.713983e-08
-2.970000e+00 -1.719402e-08
-2.960000e+00 -1.727504e-08
-2.950000e+00 -1.738552e-08
-2.940001e+00 -1.752788e-08
-2.930000e+00 -1.770429e-08
-2.920000e+00 -1.791670e-08
-2.910000e+00 -1.816674e-08
-2.900001e+00 -1.845578e-08
-2.890000e+00 -1.878486e-08
-2.880000e+00 -1.915471e-08
-2.870000e+00 -1.956575e-08
-2.860001e+00 -2.001805e-08
-2.850000e+00 -2.051136e-08
-2.840000e+00 -2.104509e-08
-2.830000e+00 -2.161835e-08
-2.820001e+00 -2.222992e-08
-2.810000e+00 -2.287829e-08
-2.800000e+00 -2.356166e-08
-2.790000e+00 -2.427797e-08
-2.780000e+00 -2.502494e-08
-2.770000e+00 -2.580007e-08
-2.760000e+00 -2.660066e-08
-2.750000e+00 -2.742389e-08
-2.740000e+00 -2.826683e-08
-2.730000e+00 -2.912645e-08
-2.720000e+00 -2.999969e-08
-2.710000e+00 -3.088352e-08
-2.700000e+00 -3.177490e-08
-2.690001e+00 -3.267092e-08
-2.680000e+00 -3.356878e-08
-2.670000e+00 -3.446581e-08
-2.660000e+00 -3.535957e-08
-2.650001e+00 -3.624784e-08
-2.640000e+00 -3.712867e-08
-2.630000e+00 -3.800039e-08
-2.620000e+00 -3.886166e-08
-2.610001e+00 -3.971149e-08
-2.600000e+00 -4.054922e-08
-2.590000e+00 -4.137458e-08
-2.580000e+00 -4.218768e-08
-2.570001e+00 -4.298900e-08
-2.560000e+00 -4.377942e-08
-2.550000e+00 -4.456015e-08
-2.540000e+00 -4.533278e-08
-2.530001e+00 -4.609924e-08
-2.520000e+00 -4.686176e-08
-2.510000e+00 -4.762285e-08
-2.500000e+00 -4.838527e-08
-2.490000e+00 -4.915199e-08
-2.480000e+00 -4.992615e-08
-2.470000e+00 -5.071100e-08
-2.460000e+00 -5.150988e-08
-2.450000e+00 -5.232613e-08
-2.440001e+00 -5.316310e-08
-2.430000e+00 -5.402404e-08
-2.420000e+00 -5.491207e-08
-2.410000e+00 -5.583015e-08
-2.400001e+00 -5.678100e-08
-2.390000e+00 -5.776710e-08
-2.380000e+00 -5.879060e-08
-2.370000e+00 -5.985332e-08
-2.360001e+00 -6.095671e-08
-2.350000e+00 -6.210180e-08
-2.340000e+00 -6.328925e-08
-2.330000e+00 -6.451924e-08
-2.320001e+00 -6.579154e-08
-2.310000e+00 -6.710550e-08
-2.300000e+00 -6.846004e-08
-2.290000e+00 -6.985366e-08
-2.280001e+00 -7.128450e-08
-2.270000e+00 -7.275032e-08
-2.260000e+00 -7.424861e-08
-2.250000e+00 -7.577655e-08
-2.240000e+00 -7.733112e-08
-2.230000e+00 -7.890915e-08
-2.220000e+00 -8.050733e-08
-2.210000e+00 -8.212232e-08
-2.200000e+00 -8.375081e-08
-2.190001e+00 -8.538955e-08
-2.180000e+00 -8.703547e-08
-2.170000e+00 -8.868568e-08
-2.160000e+00 -9.033760e-08
-2.150001e+00 -9.198896e-08
-2.140000e+00 -9.363789e-08
-2.130000e+00 -9.528297e-08
-2.120000e+00 -9.692326e-08
-2.110001e+00 -9.855834e-08
-2.100000e+00 -1.001884e-07
-2.090000e+00 -1.018140e-07
-2.080000e+00 -1.034366e-07
-2.070001e+00 -1.050581e-07
-2.060000e+00 -1.066808e-07
-2.050000e+00 -1.083080e-07
-2.040000e+00 -1.099431e-07
-2.030001e+00 -1.115903e-07
-2.020000e+00 -1.132542e-07
-2.010000e+00 -1.149396e-07
-2.000000e+00 -1.166521e-07
-1.990000e+00 -1.183972e-07
-1.980000e+00 -1.201808e-07
-1.970000e+00 -1.220088e-07
-1.960000e+00 -1.238874e-07
-1.950000e+00 -1.258225e-07
-1.940001e+00 -1.278201e-07
-1.930000e+00 -1.298859e-07
-1.920000e+00 -1.320254e-07
-1.910000e+00 -1.342437e-07
-1.900001e+00 -1.365455e-07
-1.890000e+00 -1.389349e-07
-1.880000e+00 -1.414156e-07
-1.870000e+00 -1.439906e-07
-1.860001e+00 -1.466623e-07
-1.850000e+00 -1.494322e-07
-1.840000e+00 -1.523015e-07
-1.830000e+00 -1.552703e-07
-1.820001e+00 -1.583380e-07
-1.810000e+00 -1.615034e-07
-1.800000e+00 -1.647646e-07
-1.790000e+00 -1.681189e-07
-1.780001e+00 -1.715632e-07
-1.770000e+00 -1.750935e-07
-1.760000e+00 -1.787056e-07
-1.750000e+00 -1.823947e-07
-1.740000e+00 -1.861557e-07
-1.730000e+00 -1.899830e-07
-1.720000e+00 -1.938713e-07
-1.710000e+00 -1.978148e-07
-1.700000e+00 -2.018078e-07
-1.690001e+00 -2.058449e-07
-1.680000e+00 -2.099205e-07
-1.670000e+00 -2.140298e-07
-1.660000e+00 -2.181680e-07
-1.650001e+00 -2.223309e-07
-1.640000e+00 -2.265148e-07
-1.630000e+00 -2.307167e-07
-1.620000e+00 -2.349341e-07
-1.610001e+00 -2.391654e-07
-1.600000e+00 -2.434097e-07
-1.590000e+00 -2.476666e-07
-1.580000e+00 -2.519369e-07
-1.570001e+00 -2.562219e-07
-1.560000e+00 -2.605235e-07
-1.550000e+00 -2.648449e-07
-1.540000e+00 -2.691893e-07
-1.530001e+00 -2.735610e-07
-1.520000e+00 -2.779646e-07
-1.510000e+00 -2.824055e-07
-1.500000e+00 -2.868891e-07
-1.490000e+00 -2.914215e-07
-1.480000e+00 -2.960089e-07
-1.470000e+00 -3.006575e-07
-1.460000e+00 -3.053739e-07
-1.450000e+00 -3.101643e-07
-1.440001e+00 -3.150349e-07
-1.430000e+00 -3.199918e-07
-1.420000e+00 -3.250405e-07
-1.410000e+00 -3.301863e-07
-1.400001e+00 -3.354340e-07
-1.390000e+00 -3.407878e-07
-1.380000e+00 -3.462516e-07
-1.370000e+00 -3.518282e-07
-1.360001e+00 -3.575202e-07
-1.350000e+00 -3.633294e-07
-1.340000e+00 -3.692570e-07
-1.330000e+00 -3.753032e-07
-1.320001e+00 -3.814682e-07
-1.310000e+00 -3.877513e-07
-1.300000e+00 -3.941512e-07
-1.290000e+00 -4.006664e-07
-1.280001e+00 -4.072949e-07
-1.270000e+00 -4.140344e-07
-1.260000e+00 -4.208823e-07
-1.250000e+00 -4.278361e-07
-1.240000e+00 -4.348932e-07
-1.230000e+00 -4.420510e-07
-1.220000e+00 -4.493072e-07
-1.210000e+00 -4.566596e-07
-1.200000e+00 -4.641066e-07
-1.190001e+00 -4.716470e-07
-1.180000e+00 -4.792799e-07
-1.170000e+00 -4.870053e-07