-1.200000e+01 0.000000e+00
-1.199000e+01 0.000000e+00
-1.198000e+01 0.000000e+00
-1.197000e+01 0.000000e+00
-1.196000e+01 9.103557e-27
-1.195000e+01 -2.025548e-23
-1.194000e+01 -2.211884e-22
-1.193000e+01 -1.312959e-21
-1.192000e+01 -5.615596e-21
-1.191000e+01 -1.935790e-20
-1.190000e+01 -5.707768e-20
-1.189000e+01 -1.492845e-19
-1.188000e+01 -3.548379e-19
-1.187000e+01 -7.797378e-19
-1.186000e+01 -1.604171e-18
-1.185000e+01 -3.119654e-18
-1.184000e+01 -5.777914e-18
-1.183000e+01 -1.025266e-17
-1.182000e+01 -1.751466e-17
-1.181000e+01 -2.891942e-17
-1.180000e+01 -4.630516e-17
-1.179000e+01 -7.209726e-17
-1.178000e+01 -1.094127e-16
-1.177000e+01 -1.621556e-16
-1.176000e+01 -2.350933e-16
-1.175000e+01 -3.338967e-16
-1.174000e+01 -4.651302e-16
-1.173000e+01 -6.361685e-16
-1.172000e+01 -8.550199e-16
-1.171000e+01 -1.130032e-15
-1.170000e+01 -1.469452e-15
-1.169000e+01 -1.880820e-15
-1.168000e+01 -2.370168e-15
-1.167000e+01 -2.941007e-15
-1.166000e+01 -3.593074e-15
-1.165000e+01 -4.320847e-15
-1.164000e+01 -5.111806e-15
-1.163000e+01 -5.944451e-15
-1.162000e+01 -6.786104e-15
-1.161000e+01 -7.590510e-15
-1.160000e+01 -8.295302e-15
-1.159000e+01 -8.819378e-15
-1.158000e+01 -9.060278e-15
-1.157000e+01 -8.891657e-15
-1.156000e+01 -8.160977e-15
-1.155000e+01 -6.687544e-15
-1.154000e+01 -4.261048e-15
-1.153000e+01 -6.407576e-16
-1.152000e+01 4.444421e-15
-1.151000e+01 1.129489e-14
-1.150000e+01 2.023806e-14
-1.149000e+01 3.162469e-14
-1.148000e+01 4.582366e-14
-1.147000e+01 6.321496e-14
-1.146000e+01 8.418085e-14
-1.145000e+01 1.090951e-13
-1.144000e+01 1.383101e-13
-1.143000e+01 1.721421e-13
-1.142000e+01 2.108539e-13
-1.141000e+01 2.546367e-13
-1.140000e+01 3.035889e-13
-1.139000e+01 3.576944e-13
-1.138000e+01 4.167992e-13
-1.137000e+01 4.805877e-13
-1.136000e+01 5.485578e-13
-1.135000e+01 6.199978e-13
-1.134000e+01 6.939625e-13
-1.133000e+01 7.692529e-13
-1.132000e+01 8.443962e-13
-1.131000e+01 9.176310e-13
-1.130000e+01 9.868960e-13
-1.129000e+01 1.049823e-12
-1.128000e+01 1.103738e-12
-1.127000e+01 1.145667e-12
-1.126000e+01 1.172348e-12
-1.125000e+01 1.180260e-12
-1.124000e+01 1.165647e-12
-1.123000e+01 1.124566e-12
-1.122000e+01 1.052936e-12
-1.121000e+01 9.466001e-13
-1.120000e+01 8.013974e-13
-1.119000e+01 6.132459e-13
-1.118000e+01 3.782341e-13
-1.117000e+01 9.272126e-14
-1.116000e+01 -2.465542e-13
-1.115000e+01 -6.423600e-13
-1.114000e+01 -1.096851e-12
-1.113000e+01 -1.611446e-12
-1.112000e+01 -2.186705e-12
-1.111000e+01 -2.822211e-12
-1.110000e+01 -3.516448e-12
-1.109000e+01 -4.266696e-12
-1.108000e+01 -5.068933e-12
-1.107000e+01 -5.917745e-12
-1.106000e+01 -6.806262e-12
-1.105000e+01 -7.726107e-12
-1.104000e+01 -8.667373e-12
-1.103000e+01 -9.618624e-12
-1.102000e+01 -1.056692e-11
-1.101000e+01 -1.149787e-11
-1.100000e+01 -1.239577e-11
-1.099000e+01 -1.324365e-11
-1.098000e+01 -1.402352e-11
-1.097000e+01 -1.471652e-11
-1.096000e+01 -1.530316e-11
-1.095000e+01 -1.576363e-11
-1.094000e+01 -1.607803e-11
-1.093000e+01 -1.622678e-11
-1.092000e+01 -1.619090e-11
-1.091000e+01 -1.595249e-11
-1.090000e+01 -1.549502e-11
-1.089000e+01 -1.480382e-11
-1.088000e+01 -1.386645e-11
-1.087000e+01 -1.267313e-11
-1.086000e+01 -1.121714e-11
-1.085000e+01 -9.495181e-12
-1.084000e+01 -7.507766e-12
-1.083000e+01 -5.259499e-12
-1.082000e+01 -2.759371e-12
-1.081000e+01 -2.096669e-14
-1.080000e+01 2.937373e-12
-1.079000e+01 6.092470e-12
-1.078000e+01 9.416298e-12
-1.077000e+01 1.287605e-11
-1.076000e+01 1.643432e-11
-1.075000e+01 2.004935e-11
-1.074000e+01 2.367536e-11
-1.073000e+01 2.726301e-11
-1.072000e+01 3.075997e-11
-1.071000e+01 3.411147e-11
-1.070000e+01 3.726112e-11
-1.069000e+01 4.015163e-11
-1.068000e+01 4.272568e-11
-1.067000e+01 4.492693e-11
-1.066000e+01 4.670091e-11
-1.065000e+01 4.799606e-11
-1.064000e+01 4.876478e-11
-1.063000e+01 4.896445e-11
-1.062000e+01 4.855844e-11
-1.061000e+01 4.751709e-11
-1.060000e+01 4.581865e-11
-1.059000e+01 4.345010e-11
-1.058000e+01 4.040790e-11
-1.057000e+01 3.669866e-11
-1.056000e+01 3.233959e-11
-1.055000e+01 2.735889e-11
-1.054000e+01 2.179590e-11
-1.053000e+01 1.570110e-11
-1.052000e+01 9.135941e-12
-1.051000e+01 2.172433e-12
-1.050000e+01 -5.107450e-12
-1.049000e+01 -1.261257e-11
-1.048000e+01 -2.024364e-11
-1.047000e+01 -2.789443e-11
-1.046000e+01 -3.545314e-11
-1.045000e+01 -4.280398e-11
-1.044000e+01 -4.982892e-11
-1.043000e+01 -5.640950e-11
-1.042000e+01 -6.242882e-11
-1.041000e+01 -6.777355e-11
-1.040000e+01 -7.233610e-11
-1.039000e+01 -7.601657e-11
-1.038000e+01 -7.872501e-11
-1.037000e+01 -8.038324e-11
-1.036000e+01 -8.092690e-11
-1.035000e+01 -8.030712e-11
-1.034000e+01 -7.849214e-11
-1.033000e+01 -7.546867e-11
-1.032000e+01 -7.124294e-11
-1.031000e+01 -6.584156e-11
-1.030000e+01 -5.931201e-11
-1.029000e+01 -5.172273e-11
-1.028000e+01 -4.316297e-11
-1.027000e+01 -3.374215e-11
-1.026000e+01 -2.358888e-11
-1.025000e+01 -1.284961e-11
-1.024000e+01 -1.686838e-12
-1.023000e+01 9.722986e-12
-1.022000e+01 2.119195e-11
-1.021000e+01 3.252348e-11
-1.020000e+01 4.351542e-11
-1.019000e+01 5.396335e-11
-1.018000e+01 6.366413e-11
-1.017000e+01 7.241958e-11
-1.016000e+01 8.004013e-11
-1.015000e+01 8.634875e-11
-1.014000e+01 9.118449e-11
-1.013000e+01 9.440617e-11
-1.012000e+01 9.589574e-11
-1.011000e+01 9.556144e-11
-1.010000e+01 9.334055e-11
-1.009000e+01 8.920183e-11
-1.008000e+01 8.314742e-11
-1.007000e+01 7.521429e-11
-1.006000e+01 6.547507e-11
-1.005000e+01 5.403826e-11
-1.004000e+01 4.104783e-11
-1.003000e+01 2.668218e-11
-1.002000e+01 1.115231e-11
-1.001000e+01 -5.300526e-12
-1.000000e+01 -2.240798e-11
-9.990000e+00 -3.987830e-11
-9.980000e+00 -5.740065e-11
-9.970000e+00 -7.465004e-11
-9.960000e+00 -9.129254e-11
-9.950000e+00 -1.069912e-10
-9.940001e+00 -1.214119e-10
-9.930000e+00 -1.342298e-10
-9.920000e+00 -1.451358e-10
-9.910000e+00 -1.538425e-10
-9.900000e+00 -1.600911e-10
-9.890000e+00 -1.636569e-10
-9.880000e+00 -1.643552e-10
-9.870000e+00 -1.620464e-10
-9.860001e+00 -1.566411e-10
-9.850000e+00 -1.481029e-10
-9.840000e+00 -1.364526e-10
-9.830000e+00 -1.217699e-10
-9.820000e+00 -1.041944e-10
-9.809999e+00 -8.392630e-11
-9.800000e+00 -6.122487e-11
-9.790000e+00 -3.640685e-11
-9.780000e+00 -9.843011e-12
-9.770000e+00 1.804611e-11
-9.760000e+00 4.679562e-11
-9.750000e+00 7.590276e-11
-9.740000e+00 1.048344e-10
-9.730000e+00 1.330352e-10
-9.720000e+00 1.599369e-10
-9.710000e+00 1.849679e-10
-9.700000e+00 2.075639e-10
-9.690001e+00 2.271775e-10
-9.680000e+00 2.432901e-10
-9.670000e+00 2.554216e-10
-9.660000e+00 2.631414e-10
-9.650000e+00 2.660781e-10
-9.640000e+00 2.639289e-10
-9.630000e+00 2.564682e-10
-9.620000e+00 2.435554e-10
-9.610001e+00 2.251408e-10
-9.600000e+00 2.012709e-10
-9.590000e+00 1.720918e-10
-9.580000e+00 1.378512e-10
-9.570000e+00 9.889850e-11
-9.559999e+00 5.568334e-11
-9.550000e+00 8.752008e-12
-9.540000e+00 -4.125770e-11
-9.530000e+00 -9.362365e-11
-9.520000e+00 -1.475482e-10
-9.510000e+00 -2.021687e-10
-9.500000e+00 -2.565697e-10
-9.490000e+00 -3.097964e-10
-9.480000e+00 -3.608695e-10
-9.470000e+00 -4.088008e-10
-9.460000e+00 -4.526098e-10
-9.450000e+00 -4.913409e-10
-9.440001e+00 -5.240804e-10
-9.430000e+00 -5.499745e-10
-9.420000e+00 -5.682449e-10
-9.410000e+00 -5.782065e-10
-9.400000e+00 -5.792816e-10
-9.390000e+00 -5.710144e-10
-9.380000e+00 -5.530832e-10
-9.370000e+00 -5.253116e-10
-9.360001e+00 -4.876760e-10
-9.350000e+00 -4.403128e-10
-9.340000e+00 -3.835219e-10
-9.330000e+00 -3.177676e-10
-9.320000e+00 -2.436770e-10
-9.309999e+00 -1.620362e-10
-9.300000e+00 -7.378203e-11
-9.290000e+00 2.000707e-11
-9.280000e+00 1.181243e-10
-9.270000e+00 2.192497e-10
-9.260000e+00 3.219680e-10
-9.250000e+00 4.247882e-10
-9.240000e+00 5.261659e-10
-9.230000e+00 6.245264e-10
-9.220000e+00 7.182894e-10
-9.210000e+00 8.058945e-10
-9.200000e+00 8.858270e-10
-9.190001e+00 9.566445e-10
-9.180000e+00 1.017002e-09
-9.170000e+00 1.065675e-09
-9.160000e+00 1.101587e-09
-9.150000e+00 1.123826e-09
-9.140000e+00 1.131669e-09
-9.130000e+00 1.124592e-09
-9.120000e+00 1.102293e-09
-9.110001e+00 1.064695e-09
-9.100000e+00 1.011954e-09
-9.090000e+00 9.444684e-10
-9.080000e+00 8.628706e-10
-9.070000e+00 7.680276e-10
-9.060000e+00 6.610308e-10
-9.050000e+00 5.431835e-10
-9.040000e+00 4.159845e-10
-9.030000e+00 2.811084e-10
-9.020000e+00 1.403816e-10
-9.010000e+00 -4.243925e-12
-9.000000e+00 -1.507202e-10
-8.990000e+00 -2.969348e-10
-8.980000e+00 -4.407443e-10
-8.970000e+00 -5.800091e-10
-8.960000e+00 -7.126287e-10
-8.950000e+00 -8.365773e-10
-8.940001e+00 -9.499392e-10
-8.930000e+00 -1.050942e-09
-8.920000e+00 -1.137990e-09
-8.910000e+00 -1.209693e-09
-8.900000e+00 -1.264894e-09
-8.890000e+00 -1.302692e-09
-8.880000e+00 -1.322463e-09
-8.870000e+00 -1.323873e-09
-8.860001e+00 -1.306892e-09
-8.850000e+00 -1.271798e-09
-8.840000e+00 -1.219175e-09
-8.830000e+00 -1.149914e-09
-8.820000e+00 -1.065195e-09
-8.810000e+00 -9.664800e-10
-8.800000e+00 -8.554850e-10
-8.790000e+00 -7.341586e-10
-8.780000e+00 -6.046513e-10
-8.770000e+00 -4.692803e-10
-8.760000e+00 -3.304926e-10
-8.750000e+00 -1.908239e-10
-8.740000e+00 -5.285546e-11
-8.730000e+00 8.083090e-11
-8.720000e+00 2.076983e-10
-8.710000e+00 3.253007e-10
-8.700000e+00 4.313282e-10
-8.690001e+00 5.236507e-10
-8.680000e+00 6.003593e-10
-8.670000e+00 6.598045e-10
-8.660000e+00 7.006311e-10
-8.650000e+00 7.218077e-10
-8.640000e+00 7.226524e-10
-8.630000e+00 7.028513e-10
-8.620000e+00 6.624724e-10
-8.610001e+00 6.019715e-10
-8.600000e+00 5.221927e-10
-8.590000e+00 4.243616e-10
-8.580000e+00 3.100710e-10
-8.570000e+00 1.812608e-10
-8.560000e+00 4.019058e-11
-8.550000e+00 -1.105939e-10
-8.540000e+00 -2.682994e-10
-8.530000e+00 -4.299301e-10
-8.520000e+00 -5.923360e-10
-8.510000e+00 -7.522660e-10
-8.500000e+00 -9.064230e-10
-8.490000e+00 -1.051522e-09
-8.480000e+00 -1.184348e-09
-8.470000e+00 -1.301816e-09
-8.460000e+00 -1.401026e-09
-8.450000e+00 -1.479322e-09
-8.440001e+00 -1.534342e-09
-8.430000e+00 -1.564067e-09
-8.420000e+00 -1.566867e-09
-8.410000e+00 -1.541535e-09
-8.400000e+00 -1.487320e-09
-8.390000e+00 -1.403953e-09
-8.380000e+00 -1.291659e-09
-8.370000e+00 -1.151169e-09
-8.360001e+00 -9.837162e-10
-8.350000e+00 -7.910292e-10
-8.340000e+00 -5.753130e-10
-8.330000e+00 -3.392219e-10
-8.320000e+00 -8.582588e-11
-8.310000e+00 1.814329e-10
-8.300000e+00 4.587891e-10
-8.290000e+00 7.422110e-10
-8.280000e+00 1.027462e-09
-8.270000e+00 1.310168e-09
-8.260000e+00 1.585885e-09
-8.250000e+00 1.850176e-09
-8.240000e+00 2.098681e-09
-8.230000e+00 2.327190e-09
-8.220000e+00 2.531723e-09
-8.210000e+00 2.708590e-09
-8.200000e+00 2.854463e-09
-8.190001e+00 2.966438e-09
-8.180000e+00 3.042087e-09
-8.170000e+00 3.079508e-09
-8.160000e+00 3.077365e-09
-8.150000e+00 3.034918e-09
-8.140000e+00 2.952047e-09
-8.130000e+00 2.829260e-09
-8.120000e+00 2.667698e-09
-8.110001e+00 2.469123e-09
-8.100000e+00 2.235899e-09
-8.090000e+00 1.970963e-09
-8.080000e+00 1.677783e-09
-8.070000e+00 1.360307e-09
-8.060000e+00 1.022911e-09
-8.050000e+00 6.703251e-10
-8.040000e+00 3.075666e-10
-8.030000e+00 -6.014180e-11
-8.020000e+00 -4.274535e-10
-8.010000e+00 -7.889839e-10
-8.000000e+00 -1.139398e-09
-7.990000e+00 -1.473498e-09
-7.980000e+00 -1.786307e-09
-7.970000e+00 -2.073157e-09
-7.960000e+00 -2.329763e-09
-7.950000e+00 -2.552297e-09
-7.940000e+00 -2.737457e-09
-7.930000e+00 -2.882520e-09
-7.920000e+00 -2.985396e-09
-7.910000e+00 -3.044659e-09
-7.900000e+00 -3.059583e-09
-7.890000e+00 -3.030150e-09
-7.880000e+00 -2.957058e-09
-7.870000e+00 -2.841714e-09
-7.860000e+00 -2.686209e-09
-7.850000e+00 -2.493291e-09
-7.840000e+00 -2.266317e-09
-7.830000e+00 -2.009204e-09
-7.820000e+00 -1.726363e-09
-7.810000e+00 -1.422624e-09
-7.800000e+00 -1.103163e-09
-7.790000e+00 -7.734072e-10
-7.780000e+00 -4.389500e-10
-7.770000e+00 -1.054549e-10
-7.760000e+00 2.214409e-10
-7.750000e+00 5.362214e-10
-7.740000e+00 8.335866e-10
-7.730000e+00 1.108543e-09
-7.720000e+00 1.356489e-09
-7.710000e+00 1.573296e-09
-7.700000e+00 1.755377e-09
-7.690000e+00 1.899750e-09
-7.680000e+00 2.004093e-09
-7.670000e+00 2.066779e-09
-7.660000e+00 2.086909e-09
-7.650000e+00 2.064327e-09
-7.640000e+00 1.999621e-09
-7.630000e+00 1.894117e-09
-7.620000e+00 1.749850e-09
-7.610000e+00 1.569537e-09
-7.600000e+00 1.356518e-09
-7.590000e+00 1.114710e-09
-7.580000e+00 8.485282e-10
-7.570000e+00 5.628117e-10
-7.560000e+00 2.627379e-10
-7.550000e+00 -4.626974e-11
-7.540000e+00 -3.586388e-10
-7.530000e+00 -6.687466e-10
-7.520000e+00 -9.710210e-10
-7.510000e+00 -1.260041e-09
-7.500000e+00 -1.530631e-09
-7.490000e+00 -1.777959e-09
-7.480000e+00 -1.997619e-09
-7.470000e+00 -2.185714e-09
-7.460000e+00 -2.338925e-09
-7.450000e+00 -2.454572e-09
-7.440000e+00 -2.530665e-09
-7.430000e+00 -2.565935e-09
-7.420000e+00 -2.559866e-09
-7.410000e+00 -2.512700e-09
-7.400000e+00 -2.425434e-09
-7.390000e+00 -2.299805e-09
-7.380000e+00 -2.138256e-09
-7.370000e+00 -1.943900e-09
-7.360000e+00 -1.720454e-09
-7.350000e+00 -1.472180e-09
-7.340000e+00 -1.203805e-09
-7.330000e+00 -9.204357e-10
-7.320000e+00 -6.274670e-10
-7.310000e+00 -3.304818e-10
-7.300000e+00 -3.515020e-11
-7.290000e+00 2.528747e-10
-7.280000e+00 5.280606e-10
-7.270000e+00 7.850982e-10
-7.260000e+00 1.018999e-09
-7.250000e+00 1.225190e-09
-7.240000e+00 1.399596e-09
-7.230000e+00 1.538719e-09
-7.220000e+00 1.639703e-09
-7.210000e+00 1.700392e-09
-7.200000e+00 1.719367e-09
-7.190000e+00 1.695983e-09
-7.180000e+00 1.630374e-09
-7.170000e+00 1.523466e-09
-7.160000e+00 1.376953e-09
-7.150000e+00 1.193277e-09
-7.140000e+00 9.755829e-10
-7.130000e+00 7.276684e-10
-7.120000e+00 4.539149e-10
-7.110000e+00 1.592129e-10
-7.100000e+00 -1.511243e-10
-7.090000e+00 -4.714543e-10
-7.080000e+00 -7.959053e-10
-7.070000e+00 -1.118481e-09
-7.060000e+00 -1.433166e-09
-7.050000e+00 -1.734034e-09
-7.040000e+00 -2.015355e-09
-7.030000e+00 -2.271693e-09
-7.020000e+00 -2.498008e-09
-7.010000e+00 -2.689745e-09
-7.000000e+00 -2.842914e-09
-6.990000e+00 -2.954162e-09
-6.980000e+00 -3.020831e-09
-6.970000e+00 -3.041012e-09
-6.960000e+00 -3.013568e-09
-6.950000e+00 -2.938163e-09
-6.940000e+00 -2.815264e-09
-6.930000e+00 -2.646132e-09
-6.920000e+00 -2.432795e-09
-6.910000e+00 -2.178018e-09
-6.900000e+00 -1.885246e-09
-6.890000e+00 -1.558544e-09
-6.880000e+00 -1.202524e-09
-6.870000e+00 -8.222593e-10
-6.860000e+00 -4.231945e-10
-6.850000e+00 -1.104765e-11
-6.840000e+00 4.082930e-10
-6.830000e+00 8.288732e-10
-6.820000e+00 1.244779e-09
-6.810000e+00 1.650240e-09
-6.800000e+00 2.039732e-09
-6.790000e+00 2.408071e-09
-6.780000e+00 2.750504e-09
-6.770000e+00 3.062788e-09
-6.760000e+00 3.341259e-09
-6.750000e+00 3.582895e-09
-6.740000e+00 3.785355e-09
-6.730000e+00 3.947021e-09
-6.720000e+00 4.067008e-09
-6.710000e+00 4.145175e-09
-6.700000e+00 4.182112e-09
-6.690000e+00 4.179120e-09
-6.680000e+00 4.138169e-09
-6.670000e+00 4.061852e-09
-6.660000e+00 3.953322e-09
-6.650000e+00 3.816220e-09
-6.640000e+00 3.654595e-09
-6.630000e+00 3.472813e-09
-6.620000e+00 3.275466e-09
-6.610000e+00 3.067270e-09
-6.600000e+00 2.852972e-09
-6.590000e+00 2.637241e-09
-6.580000e+00 2.424581e-09
-6.570000e+00 2.219229e-09
-6.560000e+00 2.025074e-09
-6.550000e+00 1.845574e-09
-6.540000e+00 1.683690e-09
-6.530000e+00 1.541821e-09
-6.520000e+00 1.421763e-09
-6.510000e+00 1.324670e-09
-6.500000e+00 1.251039e-09
-6.490000e+00 1.200698e-09
-6.480000e+00 1.172818e-09
-6.470000e+00 1.165935e-09
-6.460000e+00 1.177986e-09
-6.450000e+00 1.206356e-09
-6.440000e+00 1.247946e-09
-6.430000e+00 1.299236e-09
-6.420000e+00 1.356377e-09
-6.410000e+00 1.415274e-09
-6.400000e+00 1.471686e-09
-6.390000e+00 1.521323e-09
-6.380000e+00 1.559953e-09
-6.370000e+00 1.583499e-09
-6.360000e+00 1.588146e-09
-6.350000e+00 1.570429e-09
-6.340000e+00 1.527333e-09
-6.330000e+00 1.456365e-09
-6.320000e+00 1.355633e-09
-6.310000e+00 1.223904e-09
-6.300000e+00 1.060652e-09
-6.290000e+00 8.660928e-10
-6.280000e+00 6.411997e-10
-6.270000e+00 3.877108e-10
-6.260000e+00 1.081145e-10
-6.250000e+00 -1.943783e-10
-6.240000e+00 -5.158775e-10
-6.230000e+00 -8.518721e-10
-6.220000e+00 -1.197302e-09
-6.210000e+00 -1.546644e-09
-6.200000e+00 -1.894006e-09
-6.190000e+00 -2.233232e-09
-6.180000e+00 -2.558016e-09
-6.170000e+00 -2.862021e-09
-6.160000e+00 -3.138996e-09
-6.150000e+00 -3.382902e-09
-6.140000e+00 -3.588031e-09
-6.130000e+00 -3.749123e-09
-6.120000e+00 -3.861474e-09
-6.110000e+00 -3.921042e-09
-6.100000e+00 -3.924535e-09
-6.090000e+00 -3.869491e-09
-6.080000e+00 -3.754341e-09
-6.070000e+00 -3.578463e-09
-6.060000e+00 -3.342207e-09
-6.050000e+00 -3.046916e-09
-6.040000e+00 -2.694919e-09
-6.030000e+00 -2.289509e-09
-6.020000e+00 -1.834905e-09
-6.010000e+00 -1.336192e-09
-6.000000e+00 -7.992434e-10
-5.990000e+00 -2.306367e-10
-5.980000e+00 3.624575e-10
-5.970000e+00 9.723911e-10
-5.960000e+00 1.591167e-09
-5.950000e+00 2.210575e-09
-5.940000e+00 2.822337e-09
-5.930000e+00 3.418249e-09
-5.920000e+00 3.990329e-09
-5.910000e+00 4.530966e-09
-5.900000e+00 5.033051e-09
-5.890000e+00 5.490118e-09
-5.880000e+00 5.896461e-09
-5.870000e+00 6.247245e-09
-5.860000e+00 6.538607e-09
-5.850000e+00 6.767726e-09
-5.840000e+00 6.932895e-09
-5.830000e+00 7.033554e-09
-5.820000e+00 7.070318e-09
-5.810000e+00 7.044976e-09
-5.800000e+00 6.960468e-09
-5.790000e+00 6.820848e-09
-5.780000e+00 6.631219e-09
-5.770000e+00 6.397651e-09
-5.760000e+00 6.127085e-09
-5.750000e+00 5.827210e-09
-5.740000e+00 5.506337e-09
-5.730000e+00 5.173251e-09
-5.720000e+00 4.837060e-09
-5.710000e+00 4.507031e-09
-5.700000e+00 4.192426e-09
-5.690000e+00 3.902331e-09
-5.680000e+00 3.645495e-09
-5.670000e+00 3.430163e-09
-5.660000e+00 3.263927e-09
-5.650000e+00 3.153577e-09
-5.640000e+00 3.104973e-09
-5.630000e+00 3.122931e-09
-5.620000e+00 3.211121e-09
-5.610000e+00 3.371994e-09
-5.600000e+00 3.606720e-09
-5.590000e+00 3.915157e-09
-5.580000e+00 4.295838e-09
-5.570000e+00 4.745987e-09
-5.560000e+00 5.261548e-09
-5.550000e+00 5.837251e-09
-5.540000e+00 6.466689e-09
-5.530000e+00 7.142423e-09
-5.520000e+00 7.856102e-09
-5.510000e+00 8.598604e-09
-5.500000e+00 9.360188e-09
-5.490000e+00 1.013066e-08
-5.480000e+00 1.089956e-08
-5.470000e+00 1.165632e-08
-5.460000e+00 1.239047e-08
-5.450000e+00 1.309183e-08
-5.440000e+00 1.375067e-08
-5.430000e+00 1.435788e-08
-5.420000e+00 1.490519e-08
-5.410000e+00 1.538526e-08
-5.400000e+00 1.579183e-08
-5.390000e+00 1.611990e-08
-5.380000e+00 1.636573e-08
-5.370000e+00 1.652700e-08
-5.360000e+00 1.660283e-08
-5.350000e+00 1.659381e-08
-5.340000e+00 1.650201e-08
-5.330000e+00 1.633092e-08
-5.320000e+00 1.608550e-08
-5.310000e+00 1.577200e-08
-5.300000e+00 1.539790e-08
-5.290000e+00 1.497185e-08
-5.280000e+00 1.450344e-08
-5.270000e+00 1.400312e-08
-5.260000e+00 1.348198e-08
-5.250000e+00 1.295160e-08
-5.240000e+00 1.242384e-08
-5.230000e+00 1.191067e-08
-5.220000e+00 1.142392e-08
-5.210000e+00 1.097515e-08
-5.200000e+00 1.057540e-08
-5.190000e+00 1.023503e-08
-5.180000e+00 9.963551e-09
-5.170000e+00 9.769444e-09
-5.160000e+00 9.660040e-09
-5.150000e+00 9.641387e-09
-5.140000e+00 9.718147e-09
-5.130000e+00 9.893522e-09
-5.120000e+00 1.016920e-08
-5.110000e+00 1.054532e-08
-5.100000e+00 1.102050e-08
-5.090000e+00 1.159182e-08
-5.080000e+00 1.225490e-08
-5.070000e+00 1.300398e-08
-5.060000e+00 1.383200e-08
-5.050000e+00 1.473075e-08
-5.040000e+00 1.569096e-08
-5.030000e+00 1.670254e-08
-5.020000e+00 1.775469e-08
-5.010000e+00 1.883608e-08
-5.000000e+00 1.993510e-08
-4.990000e+00 2.104002e-08
-4.980000e+00 2.213917e-08
-4.970000e+00 2.322118e-08
-4.960000e+00 2.427517e-08
-4.950000e+00 2.529089e-08
-4.940000e+00 2.625893e-08
-4.930000e+00 2.717089e-08
-4.920000e+00 2.801947e-08
-4.910000e+00 2.879862e-08
-4.900000e+00 2.950364e-08
-4.890000e+00 3.013125e-08
-4.880000e+00 3.067963e-08
-4.870000e+00 3.114845e-08
-4.860000e+00 3.153887e-08
-4.850000e+00 3.185352e-08
-4.840000e+00 3.209642e-08
-4.830000e+00 3.227295e-08
-4.820000e+00 3.238968e-08
-4.810000e+00 3.245433e-08
-4.800000e+00 3.247558e-08
-4.790000e+00 3.246292e-08
-4.780000e+00 3.242650e-08
-4.770000e+00 3.237695e-08
-4.760000e+00 3.232516e-08
-4.750000e+00 3.228215e-08
-4.740000e+00 3.225884e-08
-4.730000e+00 3.226586e-08
-4.720000e+00 3.231339e-08
-4.710000e+00 3.241101e-08
-4.700000e+00 3.256748e-08
-4.690000e+00 3.279064e-08
-4.680000e+00 3.308728e-08
-4.670000e+00 3.346301e-08
-4.660000e+00 3.392223e-08
-4.650000e+00 3.446801e-08
-4.640000e+00 3.510205e-08
-4.630000e+00 3.582472e-08
-4.620000e+00 3.663499e-08
-4.610000e+00 3.753056e-08
-4.600000e+00 3.850782e-08
-4.590000e+00 3.956201e-08
-4.580000e+00 4.068723e-08
-4.570000e+00 4.187665e-08
-4.560000e+00 4.312257e-08
-4.550000e+00 4.441662e-08
-4.540000e+00 4.574986e-08
-4.530000e+00 4.711301e-08
-4.520000e+00 4.849658e-08
-4.510000e+00 4.989106e-08
-4.500000e+00 5.128707e-08
-4.490000e+00 5.267556e-08
-4.480000e+00 5.404797e-08
-4.470000e+00 5.539633e-08
-4.460000e+00 5.671348e-08
-4.450000e+00 5.799313e-08
-4.440000e+00 5.922999e-08
-4.430000e+00 6.041989e-08
-4.420000e+00 6.155976e-08
-4.410000e+00 6.264780e-08
-4.400000e+00 6.368342e-08
-4.390000e+00 6.466725e-08
-4.380000e+00 6.560118e-08
-4.370000e+00 6.648826e-08
-4.360000e+00 6.733266e-08
-4.350000e+00 6.813963e-08
-4.340000e+00 6.891532e-08
-4.330000e+00 6.966678e-08
-4.320000e+00 7.040171e-08
-4.310000e+00 7.112845e-08
-4.300000e+00 7.185574e-08
-4.290000e+00 7.259260e-08
-4.280000e+00 7.334819e-08
-4.270000e+00 7.413166e-08
-4.260000e+00 7.495195e-08
-4.250000e+00 7.581770e-08
-4.240000e+00 7.673707e-08
-4.230000e+00 7.771764e-08
-4.220000e+00 7.876626e-08
-4.210000e+00 7.988898e-08
-4.200000e+00 8.109094e-08
-4.190000e+00 8.237630e-08
-4.180000e+00 8.374819e-08
-4.170000e+00 8.520869e-08
-4.160000e+00 8.675878e-08
-4.150000e+00 8.839839e-08
-4.140000e+00 9.012638e-08
-4.130000e+00 9.194061e-08
-4.120000e+00 9.383798e-08
-4.110000e+00 9.581450e-08
-4.100000e+00 9.786540e-08
-4.090000e+00 9.998523e-08
-4.080000e+00 1.021679e-07
-4.070000e+00 1.044070e-07
-4.060000e+00 1.066956e-07
-4.050000e+00 1.090267e-07
-4.040000e+00 1.113931e-07
-4.030000e+00 1.137877e-07
-4.020000e+00 1.162037e-07
-4.010000e+00 1.186343e-07
-4.000000e+00 1.210734e-07
-3.990000e+00 1.235152e-07
-3.980000e+00 1.259546e-07
-3.970000e+00 1.283872e-07
-3.960000e+00 1.308092e-07
-3.950000e+00 1.332176e-07
-3.940001e+00 1.356104e-07
-3.930000e+00 1.379863e-07
-3.920000e+00 1.403448e-07
-3.910000e+00 1.426862e-07
-3.900001e+00 1.450117e-07
-3.890000e+00 1.473233e-07
-3.880000e+00 1.496234e-07
-3.870000e+00 1.519153e-07
-3.860001e+00 1.542029e-07
-3.850000e+00 1.564902e-07
-3.840000e+00 1.587819e-07
-3.830000e+00 1.610828e-07
-3.820001e+00 1.633980e-07
-3.810000e+00 1.657326e-07
-3.800000e+00 1.680916e-07
-3.790000e+00 1.704800e-07
-3.780000e+00 1.729025e-07
-3.770000e+00 1.753635e-07
-3.760000e+00 1.778671e-07
-3.750000e+00 1.804168e-07
-3.740000e+00 1.830158e-07
-3.730000e+00 1.856666e-07
-3.720000e+00 1.883713e-07
-3.710000e+00 1.911311e-07
-3.700000e+00 1.939470e-07
-3.690001e+00 1.968192e-07
-3.680000e+00 1.997472e-07
-3.670000e+00 2.027303e-07
-3.660000e+00 2.057670e-07
-3.650001e+00 2.088557e-07
-3.640000e+00 2.119940e-07
-3.630000e+00 2.151796e-07
-3.620000e+00 2.184098e-07
-3.610001e+00 2.216817e-07
-3.600000e+00 2.249925e-07
-3.590000e+00 2.283393e-07
-3.580000e+00 2.317194e-07
-3.570001e+00 2.351302e-07
-3.560000e+00 2.385694e-07
-3.550000e+00 2.420352e-07
-3.540000e+00 2.455260e-07
-3.530000e+00 2.490407e-07
-3.520000e+00 2.525789e-07
-3.510000e+00 2.561405e-07
-3.500000e+00 2.597262e-07
-3.490000e+00 2.633370e-07
-3.480000e+00 2.669749e-07
-3.470000e+00 2.706421e-07
-3.460000e+00 2.743417e-07
-3.450000e+00 2.780770e-07
-3.440001e+00 2.818522e-07
-3.430000e+00 2.856715e-07
-3.420000e+00 2.895399e-07
-3.410000e+00 2.934624e-07
-3.400001e+00 2.974446e-07
-3.390000e+00 3.014918e-07
-3.380000e+00 3.056098e-07
-3.370000e+00 3.098043e-07
-3.360001e+00 3.140808e-07
-3.350000e+00 3.184449e-07
-3.340000e+00 3.229016e-07
-3.330000e+00 3.274560e-07
-3.320001e+00 3.321126e-07
-3.310000e+00 3.368757e-07
-3.300000e+00 3.417487e-07
-3.290000e+00 3.467349e-07
-3.280000e+00 3.518369e-07
-3.270000e+00 3.570567e-07
-3.260000e+00 3.623956e-07
-3.250000e+00 3.678546e-07
-3.240000e+00 3.734338e-07
-3.230000e+00 3.791330e-07
-3.220000e+00 3.849512e-07
-3.210000e+00 3.908870e-07
-3.200000e+00 3.969387e-07
-3.190001e+00 4.031040e-07
-3.180000e+00 4.093802e-07
-3.170000e+00 4.157645e-07
-3.160000e+00 4.222537e-07
-3.150001e+00 4.288447e-07
-3.140000e+00 4.355339e-07
-3.130000e+00 4.423181e-07
-3.120000e+00 4.491939e-07
-3.110001e+00 4.561581e-07
-3.100000e+00 4.632076e-07
-3.090000e+00 4.703397e-07
-3.080000e+00 4.775518e-07
-3.070001e+00 4.848416e-07
-3.060000e+00 4.922074e-07
-3.050000e+00 4.996476e-07
-3.040000e+00 5.071611e-07
-3.030000e+00 5.147473e-07
-3.020000e+00 5.224057e-07
-3.010000e+00 5.301366e-07
-3.000000e+00 5.379404e-07
-2.990000e+00 5.458178e-07
-2.980000e+00 5.537702e-07
-2.970000e+00 5.617987e-07
-2.960000e+00 5.699050e-07
-2.950000e+00 5.780910e-07
-2.940001e+00 5.863585e-07
-2.930000e+00 5.947095e-07
-2.920000e+00 6.031461e-07
-2.910000e+00 6.116704e-07
-2.900001e+00 6.202843e-07
-2.890000e+00 6.289894e-07
-2.880000e+00 6.377875e-07
-2.870000e+00 6.466800e-07
-2.860001e+00 6.556680e-07
-2.850000e+00 6.647523e-07
-2.840000e+00 6.739336e-07
-2.830000e+00 6.832122e-07
-2.820001e+00 6.925880e-07
-2.810000e+00 7.020607e-07
-2.800000e+00 7.116298e-07
-2.790000e+00 7.212943e-07
-2.780000e+00 7.310531e-07
-2.770000e+00 7.409049e-07
-2.760000e+00 7.508484e-07
-2.750000e+00 7.608817e-07
-2.740000e+00 7.710035e-07
-2.730000e+00 7.812120e-07
-2.720000e+00 7.915059e-07
-2.710000e+00 8.018836e-07
-2.700000e+00 8.123441e-07
-2.690001e+00 8.228863e-07
-2.680000e+00 8.335097e-07
-2.670000e+00 8.442142e-07
-2.660000e+00 8.549999e-07
-2.650001e+00 8.658675e-07
-2.640000e+00 8.768183e-07
-2.630000e+00 8.878541e-07
-2.620000e+00 8.989770e-07
-2.610001e+00 9.101904e-07
-2.600000e+00 9.214975e-07
-2.590000e+00 9.329025e-07
-2.580000e+00 9.444103e-07
-2.570001e+00 9.560259e-07
-2.560000e+00 9.677555e-07
-2.550000e+00 9.796048e-07
-2.540000e+00 9.915811e-07
-2.530001e+00 1.003691e-06
-2.520000e+00 1.015942e-06
-2.510000e+00 1.028342e-06
-2.500000e+00 1.040898e-06
-2.490000e+00 1.053619e-06
-2.480000e+00 1.066511e-06
-2.470000e+00 1.079584e-06
-2.460000e+00 1.092842e-06
-2.450000e+00 1.106295e-06
-2.440001e+00 1.119949e-06
-2.430000e+00 1.133810e-06
-2.420000e+00 1.147884e-06
-2.410000e+00 1.162176e-06
-2.400001e+00 1.176690e-06
-2.390000e+00 1.191431e-06
-2.380000e+00 1.206401e-06
-2.370000e+00 1.221603e-06
-2.360001e+00 1.237037e-06
-2.350000e+00 1.252706e-06
-2.340000e+00 1.268607e-06
-2.330000e+00 1.284742e-06
-2.320001e+00 1.301107e-06
-2.310000e+00 1.317700e-06
-2.300000e+00 1.334519e-06
-2.290000e+00 1.351559e-06
-2.280001e+00 1.368816e-06
-2.270000e+00 1.386285e-06
-2.260000e+00 1.403961e-06
-2.250000e+00 1.421838e-06
-2.240000e+00 1.439911e-06
-2.230000e+00 1.458173e-06
-2.220000e+00 1.476618e-06
-2.210000e+00 1.495240e-06
-2.200000e+00 1.514034e-06
-2.190001e+00 1.532994e-06
-2.180000e+00 1.552114e-06
-2.170000e+00 1.571390e-06
-2.160000e+00 1.590818e-06
-2.150001e+00 1.610393e-06
-2.140000e+00 1.630112e-06
-2.130000e+00 1.649972e-06
-2.120000e+00 1.669973e-06
-2.110001e+00 1.690112e-06
-2.100000e+00 1.710390e-06
-2.090000e+00 1.730806e-06
-2.080000e+00 1.751362e-06
-2.070001e+00 1.772060e-06
-2.060000e+00 1.792902e-06
-2.050000e+00 1.813892e-06
-2.040000e+00 1.835034e-06
-2.030001e+00 1.856332e-06
-2.020000e+00 1.877792e-06
-2.010000e+00 1.899419e-06
-2.000000e+00 1.921218e-06
-1.990000e+00 1.943197e-06
-1.980000e+00 1.965362e-06
-1.970000e+00 1.987718e-06
-1.960000e+00 2.010273e-06
-1.950000e+00 2.033033e-06
-1.940001e+00 2.056005e-06
-1.930000e+00 2.079195e-06
-1.920000e+00 2.102608e-06
-1.910000e+00 2.126251e-06
-1.900001e+00 2.150128e-06
-1.890000e+00 2.174243e-06
-1.880000e+00 2.198602e-06
-1.870000e+00 2.223208e-06
-1.860001e+00 2.248063e-06
-1.850000e+00 2.273169e-06
-1.840000e+00 2.298530e-06
-1.830000e+00 2.324145e-06
-1.820001e+00 2.350014e-06
-1.810000e+00 2.376140e-06
-1.800000e+00 2.402520e-06
-1.790000e+00 2.429153e-06
-1.780001e+00 2.456039e-06
-1.770000e+00 2.483175e-06
-1.760000e+00 2.510559e-06
-1.750000e+00 2.538190e-06
-1.740000e+00 2.566064e-06
-1.730000e+00 2.594179e-06
-1.720000e+00 2.622534e-06
-1.710000e+00 2.651125e-06
-1.700000e+00 2.679950e-06
-1.690001e+00 2.709009e-06
-1.680000e+00 2.738299e-06
-1.670000e+00 2.767819e-06
-1.660000e+00 2.797570e-06
-1.650001e+00 2.827550e-06
-1.640000e+00 2.857762e-06
-1.630000e+00 2.888206e-06
-1.620000e+00 2.918885e-06
-1.610001e+00 2.949800e-06
-1.600000e+00 2.980956e-06
-1.590000e+00 3.012356e-06
-1.580000e+00 3.044005e-06
-1.570001e+00 3.075908e-06
-1.560000e+00 3.108072e-06
-1.550000e+00 3.140502e-06
-1.540000e+00 3.173205e-06
-1.530001e+00 3.206188e-06
-1.520000e+00 3.239459e-06
-1.510000e+00 3.273024e-06
-1.500000e+00 3.306893e-06
-1.490000e+00 3.341071e-06
-1.480000e+00 3.375566e-06
-1.470000e+00 3.410385e-06
-1.460000e+00 3.445536e-06
-1.450000e+00 3.481024e-06
-1.440001e+00 3.516854e-06
-1.430000e+00 3.553032e-06
-1.420000e+00 3.589563e-06
-1.410000e+00 3.626448e-06
-1.400001e+00 3.663691e-06
-1.390000e+00 3.701293e-06
-1.380000e+00 3.739254e-06
-1.370000e+00 3.777575e-06
-1.360001e+00 3.816253e-06
-1.350000e+00 3.855287e-06
-1.340000e+00 3.894672e-06
-1.330000e+00 3.934404e-06
-1.320001e+00 3.974477e-06
-1.310000e+00 4.014885e-06
-1.300000e+00 4.055622e-06
-1.290000e+00 4.096678e-06
-1.280001e+00 4.138047e-06
-1.270000e+00 4.179718e-06
-1.260000e+00 4.221683e-06
-1.250000e+00 4.263933e-06
-1.240000e+00 4.306457e-06
-1.230000e+00 4.349248e-06
-1.220000e+00 4.392296e-06
-1.210000e+00 4.435591e-06
-1.200000e+00 4.479127e-06
-1.190001e+00 4.522895e-06
-1.180000e+00 4.566888e-06
-1.170000e+00 4.611103e-06
-1.160000e+00 4.655531e-06
-1.150001e+00 4.700170e-06
-1.140000e+00 4.745019e-06
-1.130000e+00 4.790074e-06
-1.120000e+00 4.835337e-06
-1.110001e+00 4.880807e-06
-1.100000e+00 4.926487e-06
-1.090000e+00 4.972381e-06
-1.080000e+00 5.018494e-06
-1.070001e+00 5.064831e-06
-1.060000e+00 5.111399e-06
-1.050000e+00 5.158207e-06
-1.040000e+00 5.205263e-06
-1.030001e+00 5.252576e-06
-1.020000e+00 5.300157e-06