-1.200000e+01 0.000000e+00
-1.199000e+01 0.000000e+00
-1.198000e+01 0.000000e+00
-1.197000e+01 0.000000e+00
-1.196000e+01 2.048325e-26
-1.195000e+01 -5.065994e-23
-1.194000e+01 -5.530817e-22
-1.193000e+01 -3.282820e-21
-1.192000e+01 -1.404032e-20
-1.191000e+01 -4.839838e-20
-1.190000e+01 -1.427031e-19
-1.189000e+01 -3.732313e-19
-1.188000e+01 -8.871368e-19
-1.187000e+01 -1.949428e-18
-1.186000e+01 -4.010583e-18
-1.185000e+01 -7.799417e-18
-1.184000e+01 -1.444527e-17
-1.183000e+01 -2.563247e-17
-1.182000e+01 -4.378800e-17
-1.181000e+01 -7.230065e-17
-1.180000e+01 -1.157662e-16
-1.179000e+01 -1.802481e-16
-1.178000e+01 -2.735389e-16
-1.177000e+01 -4.053995e-16
-1.176000e+01 -5.877481e-16
-1.175000e+01 -8.347626e-16
-1.174000e+01 -1.162854e-15
-1.173000e+01 -1.590459e-15
-1.172000e+01 -2.137601e-15
-1.171000e+01 -2.825146e-15
-1.170000e+01 -3.673715e-15
-1.169000e+01 -4.702159e-15
-1.168000e+01 -5.925558e-15
-1.167000e+01 -7.352686e-15
-1.166000e+01 -8.982889e-15
-1.165000e+01 -1.080237e-14
-1.164000e+01 -1.277981e-14
-1.163000e+01 -1.486148e-14
-1.162000e+01 -1.696567e-14
-1.161000e+01 -1.897674e-14
-1.160000e+01 -2.073878e-14
-1.159000e+01 -2.204902e-14
-1.158000e+01 -2.265131e-14
-1.157000e+01 -2.222980e-14
-1.156000e+01 -2.040311e-14
-1.155000e+01 -1.671953e-14
-1.154000e+01 -1.065324e-14
-1.153000e+01 -1.602438e-15
-1.152000e+01 1.111064e-14
-1.151000e+01 2.823700e-14
-1.150000e+01 5.059520e-14
-1.149000e+01 7.906215e-14
-1.148000e+01 1.145601e-13
-1.147000e+01 1.580389e-13
-1.146000e+01 2.104543e-13
-1.145000e+01 2.727408e-13
-1.144000e+01 3.457794e-13
-1.143000e+01 4.303605e-13
-1.142000e+01 5.271415e-13
-1.141000e+01 6.366000e-13
-1.140000e+01 7.589824e-13
-1.139000e+01 8.942481e-13
-1.138000e+01 1.042012e-12
-1.137000e+01 1.201486e-12
-1.136000e+01 1.371414e-12
-1.135000e+01 1.550016e-12
-1.134000e+01 1.734931e-12
-1.133000e+01 1.923160e-12
-1.132000e+01 2.111021e-12
-1.131000e+01 2.294111e-12
-1.130000e+01 2.467276e-12
-1.129000e+01 2.624597e-12
-1.128000e+01 2.759387e-12
-1.127000e+01 2.864209e-12
-1.126000e+01 2.930914e-12
-1.125000e+01 2.950693e-12
-1.124000e+01 2.914160e-12
-1.123000e+01 2.811457e-12
-1.122000e+01 2.632380e-12
-1.121000e+01 2.366537e-12
-1.120000e+01 2.003525e-12
-1.119000e+01 1.533140e-12
-1.118000e+01 9.456030e-13
-1.117000e+01 2.318112e-13
-1.116000e+01 -6.163889e-13
-1.115000e+01 -1.605917e-12
-1.114000e+01 -2.742159e-12
-1.113000e+01 -4.028664e-12
-1.112000e+01 -5.466832e-12
-1.111000e+01 -7.055618e-12
-1.110000e+01 -8.791233e-12
-1.109000e+01 -1.066688e-11
-1.108000e+01 -1.267250e-11
-1.107000e+01 -1.479456e-11
-1.106000e+01 -1.701588e-11
-1.105000e+01 -1.931552e-11
-1.104000e+01 -2.166872e-11
-1.103000e+01 -2.404687e-11
-1.102000e+01 -2.641763e-11
-1.101000e+01 -2.874505e-11
-1.100000e+01 -3.098981e-11
-1.099000e+01 -3.310955e-11
-1.098000e+01 -3.505924e-11
-1.097000e+01 -3.679176e-11
-1.096000e+01 -3.825839e-11
-1.095000e+01 -3.940956e-11
-1.094000e+01 -4.019557e-11
-1.093000e+01 -4.056742e-11
-1.092000e+01 -4.047775e-11
-1.091000e+01 -3.988170e-11
-1.090000e+01 -3.873800e-11
-1.089000e+01 -3.700997e-11
-1.088000e+01 -3.466650e-11
-1.087000e+01 -3.168316e-11
-1.086000e+01 -2.804312e-11
-1.085000e+01 -2.373817e-11
-1.084000e+01 -1.876956e-11
-1.083000e+01 -1.314882e-11
-1.082000e+01 -6.898408e-12
-1.081000e+01 -5.230485e-14
-1.080000e+01 7.343644e-12
-1.079000e+01 1.523149e-11
-1.078000e+01 2.354116e-11
-1.077000e+01 3.219066e-11
-1.076000e+01 4.108645e-11
-1.075000e+01 5.012412e-11
-1.074000e+01 5.918924e-11
-1.073000e+01 6.815848e-11
-1.072000e+01 7.690096e-11
-1.071000e+01 8.527982e-11
-1.070000e+01 9.315403e-11
-1.069000e+01 1.003803e-10
-1.068000e+01 1.068155e-10
-1.067000e+01 1.123187e-10
-1.066000e+01 1.167537e-10
-1.065000e+01 1.199916e-10
-1.064000e+01 1.219133e-10
-1.063000e+01 1.224125e-10
-1.062000e+01 1.213974e-10
-1.061000e+01 1.187939e-10
-1.060000e+01 1.145477e-10
-1.059000e+01 1.086262e-10
-1.058000e+01 1.010206e-10
-1.057000e+01 9.174736e-11
-1.056000e+01 8.084951e-11
-1.055000e+01 6.839758e-11
-1.054000e+01 5.448989e-11
-1.053000e+01 3.925268e-11
-1.052000e+01 2.283956e-11
-1.051000e+01 5.430564e-12
-1.050000e+01 -1.276937e-11
-1.049000e+01 -3.153241e-11
-1.048000e+01 -5.061031e-11
-1.047000e+01 -6.973749e-11
-1.046000e+01 -8.863445e-11
-1.045000e+01 -1.070118e-10
-1.044000e+01 -1.245743e-10
-1.043000e+01 -1.410259e-10
-1.042000e+01 -1.560743e-10
-1.041000e+01 -1.694362e-10
-1.040000e+01 -1.808426e-10
-1.039000e+01 -1.900438e-10
-1.038000e+01 -1.968149e-10
-1.037000e+01 -2.009604e-10
-1.036000e+01 -2.023195e-10
-1.035000e+01 -2.007699e-10
-1.034000e+01 -1.962323e-10
-1.033000e+01 -1.886734e-10
-1.032000e+01 -1.781089e-10
-1.031000e+01 -1.646052e-10
-1.030000e+01 -1.482810e-10
-1.029000e+01 -1.293075e-10
-1.028000e+01 -1.079077e-10
-1.027000e+01 -8.435535e-11
-1.026000e+01 -5.897183e-11
-1.025000e+01 -3.212330e-11
-1.024000e+01 -4.216029e-12
-1.023000e+01 2.430885e-11
-1.022000e+01 5.298157e-11
-1.021000e+01 8.131067e-11
-1.020000e+01 1.087908e-10
-1.019000e+01 1.349108e-10
-1.018000e+01 1.591629e-10
-1.017000e+01 1.810516e-10
-1.016000e+01 2.001031e-10
-1.015000e+01 2.158746e-10
-1.014000e+01 2.279638e-10
-1.013000e+01 2.360179e-10
-1.012000e+01 2.397416e-10
-1.011000e+01 2.389056e-10
-1.010000e+01 2.333531e-10
-1.009000e+01 2.230059e-10
-1.008000e+01 2.078694e-10
-1.007000e+01 1.880361e-10
-1.006000e+01 1.636876e-10
-1.005000e+01 1.350950e-10
-1.004000e+01 1.026184e-10
-1.003000e+01 6.670363e-11
-1.002000e+01 2.787840e-11
-1.001000e+01 -1.325425e-11
-1.000000e+01 -5.602341e-11
-9.990000e+00 -9.969969e-11
-9.980000e+00 -1.435060e-10
-9.970000e+00 -1.866299e-10
-9.960000e+00 -2.282364e-10
-9.950000e+00 -2.674832e-10
-9.940001e+00 -3.035351e-10
-9.930000e+00 -3.355799e-10
-9.920000e+00 -3.628447e-10
-9.910000e+00 -3.846113e-10
-9.900000e+00 -4.002325e-10
-9.890000e+00 -4.091464e-10
-9.880000e+00 -4.108915e-10
-9.870000e+00 -4.051191e-10
-9.860001e+00 -3.916047e-10
-9.850000e+00 -3.702584e-10
-9.840000e+00 -3.411317e-10
-9.830000e+00 -3.044238e-10
-9.820000e+00 -2.604840e-10
-9.809999e+00 -2.098124e-10
-9.800000e+00 -1.530576e-10
-9.790000e+00 -9.101127e-11
-9.780000e+00 -2.460039e-11
-9.770000e+00 4.512364e-11
-9.760000e+00 1.169986e-10
-9.750000e+00 1.897676e-10
-9.740000e+00 2.620976e-10
-9.730000e+00 3.326004e-10
-9.720000e+00 3.998554e-10
-9.710000e+00 4.624336e-10
-9.700000e+00 5.189238e-10
-9.690001e+00 5.679581e-10
-9.680000e+00 6.082395e-10
-9.670000e+00 6.385679e-10
-9.660000e+00 6.578668e-10
-9.650000e+00 6.652076e-10
-9.640000e+00 6.598335e-10
-9.630000e+00 6.411806e-10
-9.620000e+00 6.088970e-10
-9.610001e+00 5.628587e-10
-9.600000e+00 5.031818e-10
-9.590000e+00 4.302318e-10
-9.580000e+00 3.446278e-10
-9.570000e+00 2.472435e-10
-9.559999e+00 1.392028e-10
-9.550000e+00 2.187171e-11
-9.540000e+00 -1.031554e-10
-9.530000e+00 -2.340731e-10
-9.520000e+00 -3.688873e-10
-9.510000e+00 -5.054413e-10
-9.500000e+00 -6.414464e-10
-9.490000e+00 -7.745156e-10
-9.480000e+00 -9.022005e-10
-9.470000e+00 -1.022031e-09
-9.460000e+00 -1.131555e-09
-9.450000e+00 -1.228383e-09
-9.440001e+00 -1.310233e-09
-9.430000e+00 -1.374969e-09
-9.420000e+00 -1.420645e-09
-9.410000e+00 -1.445548e-09
-9.400000e+00 -1.448235e-09
-9.390000e+00 -1.427565e-09
-9.380000e+00 -1.382736e-09
-9.370000e+00 -1.313304e-09
-9.360001e+00 -1.219212e-09
-9.350000e+00 -1.100801e-09
-9.340000e+00 -9.588198e-10
-9.330000e+00 -7.944297e-10
-9.320000e+00 -6.091990e-10
-9.309999e+00 -4.050922e-10
-9.300000e+00 -1.844519e-10
-9.290000e+00 5.002595e-11
-9.280000e+00 2.953242e-10
-9.270000e+00 5.481429e-10
-9.260000e+00 8.049436e-10
-9.250000e+00 1.061999e-09
-9.240000e+00 1.315448e-09
-9.230000e+00 1.561354e-09
-9.220000e+00 1.795765e-09
-9.210000e+00 2.014781e-09
-9.200000e+00 2.214616e-09
-9.190001e+00 2.391662e-09
-9.180000e+00 2.542556e-09
-9.170000e+00 2.664241e-09
-9.160000e+00 2.754021e-09
-9.150000e+00 2.809620e-09
-9.140000e+00 2.829225e-09
-9.130000e+00 2.811533e-09
-9.120000e+00 2.755783e-09
-9.110001e+00 2.661783e-09
-9.100000e+00 2.529928e-09
-9.090000e+00 2.361209e-09
-9.080000e+00 2.157209e-09
-9.070000e+00 1.920096e-09
-9.060000e+00 1.652598e-09
-9.050000e+00 1.357973e-09
-9.040000e+00 1.039969e-09
-9.030000e+00 7.027721e-10
-9.020000e+00 3.509481e-10
-9.010000e+00 -1.062278e-11
-9.000000e+00 -3.768204e-10
-8.990000e+00 -7.423634e-10
-8.980000e+00 -1.101894e-09
-8.970000e+00 -1.450061e-09
-8.960000e+00 -1.781615e-09
-8.950000e+00 -2.091492e-09
-8.940001e+00 -2.374900e-09
-8.930000e+00 -2.627411e-09
-8.920000e+00 -2.845034e-09
-8.910000e+00 -3.024293e-09
-8.900000e+00 -3.162295e-09
-8.890000e+00 -3.256789e-09
-8.880000e+00 -3.306214e-09
-8.870000e+00 -3.309737e-09
-8.860001e+00 -3.267282e-09
-8.850000e+00 -3.179542e-09
-8.840000e+00 -3.047981e-09
-8.830000e+00 -2.874821e-09
-8.820000e+00 -2.663019e-09
-8.810000e+00 -2.416223e-09
-8.800000e+00 -2.138729e-09
-8.790000e+00 -1.835405e-09
-8.780000e+00 -1.511629e-09
-8.770000e+00 -1.173194e-09
-8.760000e+00 -8.262168e-10
-8.750000e+00 -4.770375e-10
-8.740000e+00 -1.321092e-10
-8.730000e+00 2.021135e-10
-8.720000e+00 5.192881e-10
-8.710000e+00 8.132994e-10
-8.700000e+00 1.078373e-09
-8.690001e+00 1.309183e-09
-8.680000e+00 1.500957e-09
-8.670000e+00 1.649571e-09
-8.660000e+00 1.751638e-09
-8.650000e+00 1.804580e-09
-8.640000e+00 1.806690e-09
-8.630000e+00 1.757184e-09
-8.620000e+00 1.656233e-09
-8.610001e+00 1.504975e-09
-8.600000e+00 1.305522e-09
-8.590000e+00 1.060938e-09
-8.580000e+00 7.752037e-10
-8.570000e+00 4.531699e-10
-8.560000e+00 1.004854e-10
-8.550000e+00 -2.764851e-10
-8.540000e+00 -6.707586e-10
-8.530000e+00 -1.074845e-09
-8.520000e+00 -1.480869e-09
-8.510000e+00 -1.880704e-09
-8.500000e+00 -2.266105e-09
-8.490000e+00 -2.628861e-09
-8.480000e+00 -2.960934e-09
-8.470000e+00 -3.254610e-09
-8.460000e+00 -3.502641e-09
-8.450000e+00 -3.698386e-09
-8.440001e+00 -3.835939e-09
-8.430000e+00 -3.910256e-09
-8.420000e+00 -3.917257e-09
-8.410000e+00 -3.853926e-09
-8.400000e+00 -3.718387e-09
-8.390000e+00 -3.509966e-09
-8.380000e+00 -3.229226e-09
-8.370000e+00 -2.877994e-09
-8.360001e+00 -2.459354e-09
-8.350000e+00 -1.977629e-09
-8.340000e+00 -1.438328e-09
-8.330000e+00 -8.480901e-10
-8.320000e+00 -2.145886e-10
-8.310000e+00 4.535702e-10
-8.300000e+00 1.146973e-09
-8.290000e+00 1.855541e-09
-8.280000e+00 2.568681e-09
-8.270000e+00 3.275458e-09
-8.260000e+00 3.964764e-09
-8.250000e+00 4.625503e-09
-8.240000e+00 5.246775e-09
-8.230000e+00 5.818060e-09
-8.220000e+00 6.329400e-09
-8.210000e+00 6.771574e-09
-8.200000e+00 7.136264e-09
-8.190001e+00 7.416205e-09
-8.180000e+00 7.605331e-09
-8.170000e+00 7.698886e-09
-8.160000e+00 7.693528e-09
-8.150000e+00 7.587411e-09
-8.140000e+00 7.380229e-09
-8.130000e+00 7.073258e-09
-8.120000e+00 6.669346e-09
-8.110001e+00 6.172901e-09
-8.100000e+00 5.589834e-09
-8.090000e+00 4.927484e-09
-8.080000e+00 4.194522e-09
-8.070000e+00 3.400822e-09
-8.060000e+00 2.557319e-09
-8.050000e+00 1.675842e-09
-8.040000e+00 7.689334e-10
-8.030000e+00 -1.503506e-10
-8.020000e+00 -1.068643e-09
-8.010000e+00 -1.972482e-09
-8.000000e+00 -2.848529e-09
-7.990000e+00 -3.683789e-09
-7.980000e+00 -4.465824e-09
-7.970000e+00 -5.182959e-09
-7.960000e+00 -5.824482e-09
-7.950000e+00 -6.380826e-09
-7.940000e+00 -6.843732e-09
-7.930000e+00 -7.206395e-09
-7.920000e+00 -7.463588e-09
-7.910000e+00 -7.611749e-09
-7.900000e+00 -7.649059e-09
-7.890000e+00 -7.575476e-09
-7.880000e+00 -7.392747e-09
-7.870000e+00 -7.104384e-09
-7.860000e+00 -6.715617e-09
-7.850000e+00 -6.233316e-09
-7.840000e+00 -5.665874e-09
-7.830000e+00 -5.023086e-09
-7.820000e+00 -4.315975e-09
-7.810000e+00 -3.556621e-09
-7.800000e+00 -2.757960e-09
-7.790000e+00 -1.933562e-09
-7.780000e+00 -1.097411e-09
-7.770000e+00 -2.636649e-10
-7.760000e+00 5.535823e-10
-7.750000e+00 1.340541e-09
-7.740000e+00 2.083961e-09
-7.730000e+00 2.771358e-09
-7.720000e+00 3.391230e-09
-7.710000e+00 3.933252e-09
-7.700000e+00 4.388458e-09
-7.690000e+00 4.749395e-09
-7.680000e+00 5.010254e-09
-7.670000e+00 5.166971e-09
-7.660000e+00 5.217297e-09
-7.650000e+00 5.160842e-09
-7.640000e+00 4.999078e-09
-7.630000e+00 4.735317e-09
-7.620000e+00 4.374650e-09
-7.610000e+00 3.923863e-09
-7.600000e+00 3.391316e-09
-7.590000e+00 2.786794e-09
-7.580000e+00 2.121338e-09
-7.570000e+00 1.407044e-09
-7.560000e+00 6.568585e-10
-7.550000e+00 -1.156620e-10
-7.540000e+00 -8.965856e-10
-7.530000e+00 -1.671855e-09
-7.520000e+00 -2.427541e-09
-7.510000e+00 -3.150089e-09
-7.500000e+00 -3.826564e-09
-7.490000e+00 -4.444882e-09
-7.480000e+00 -4.994030e-09
-7.470000e+00 -5.464265e-09
-7.460000e+00 -5.847290e-09
-7.450000e+00 -6.136405e-09
-7.440000e+00 -6.326633e-09
-7.430000e+00 -6.414805e-09
-7.420000e+00 -6.399629e-09
-7.410000e+00 -6.281710e-09
-7.400000e+00 -6.063541e-09
-7.390000e+00 -5.749464e-09
-7.380000e+00 -5.345592e-09
-7.370000e+00 -4.859698e-09
-7.360000e+00 -4.301081e-09
-7.350000e+00 -3.680395e-09
-7.340000e+00 -3.009458e-09
-7.330000e+00 -2.301036e-09
-7.320000e+00 -1.568616e-09
-7.310000e+00 -8.261560e-10
-7.300000e+00 -8.783083e-11
-7.290000e+00 6.322265e-10
-7.280000e+00 1.320185e-09
-7.270000e+00 1.962773e-09
-7.260000e+00 2.547518e-09
-7.250000e+00 3.062987e-09
-7.240000e+00 3.498993e-09
-7.230000e+00 3.846791e-09
-7.220000e+00 4.099244e-09
-7.210000e+00 4.250956e-09
-7.200000e+00 4.298387e-09
-7.190000e+00 4.239916e-09
-7.180000e+00 4.075889e-09
-7.170000e+00 3.808611e-09
-7.160000e+00 3.442322e-09
-7.150000e+00 2.983127e-09
-7.140000e+00 2.438890e-09
-7.130000e+00 1.819102e-09
-7.120000e+00 1.134717e-09
-7.110000e+00 3.979636e-10
-7.100000e+00 -3.778765e-10
-7.090000e+00 -1.178697e-09
-7.080000e+00 -1.989819e-09
-7.070000e+00 -2.796250e-09
-7.060000e+00 -3.582953e-09
-7.050000e+00 -4.335115e-09
-7.040000e+00 -5.038405e-09
-7.030000e+00 -5.679239e-09
-7.020000e+00 -6.245016e-09
-7.010000e+00 -6.724348e-09
-7.000000e+00 -7.107259e-09
-6.990000e+00 -7.385367e-09
-6.980000e+00 -7.552032e-09
-6.970000e+00 -7.602474e-09
-6.960000e+00 -7.533859e-09
-6.950000e+00 -7.345344e-09
-6.940000e+00 -7.038095e-09
-6.930000e+00 -6.615265e-09
-6.920000e+00 -6.081927e-09
-6.910000e+00 -5.444991e-09
-6.900000e+00 -4.713071e-09
-6.890000e+00 -3.896330e-09
-6.880000e+00 -3.006297e-09
-6.870000e+00 -2.055655e-09
-6.860000e+00 -1.058016e-09
-6.850000e+00 -2.767484e-11
-6.840000e+00 1.020648e-09
-6.830000e+00 2.072069e-09
-6.820000e+00 3.111800e-09
-6.810000e+00 4.125420e-09
-6.800000e+00 5.099117e-09
-6.790000e+00 6.019932e-09
-6.780000e+00 6.875982e-09
-6.770000e+00 7.656661e-09
-6.760000e+00 8.352811e-09
-6.750000e+00 8.956874e-09
-6.740000e+00 9.463004e-09
-6.730000e+00 9.867150e-09
-6.720000e+00 1.016710e-08
-6.710000e+00 1.036251e-08
-6.700000e+00 1.045486e-08
-6.690000e+00 1.044738e-08
-6.680000e+00 1.034501e-08
-6.670000e+00 1.015424e-08
-6.660000e+00 9.882941e-09
-6.650000e+00 9.540219e-09
-6.640000e+00 9.136197e-09
-6.630000e+00 8.681788e-09
-6.620000e+00 8.188471e-09
-6.610000e+00 7.668042e-09
-6.600000e+00 7.132360e-09
-6.590000e+00 6.593103e-09
-6.580000e+00 6.061525e-09
-6.570000e+00 5.548221e-09
-6.560000e+00 5.062911e-09
-6.550000e+00 4.614241e-09
-6.540000e+00 4.209608e-09
-6.530000e+00 3.855012e-09
-6.520000e+00 3.554940e-09
-6.510000e+00 3.312278e-09
-6.500000e+00 3.128263e-09
-6.490000e+00 3.002467e-09
-6.480000e+00 2.932817e-09
-6.470000e+00 2.915650e-09
-6.460000e+00 2.945808e-09
-6.450000e+00 3.016755e-09
-6.440000e+00 3.120736e-09
-6.430000e+00 3.248960e-09
-6.420000e+00 3.391797e-09
-6.410000e+00 3.539012e-09
-6.400000e+00 3.680001e-09
-6.390000e+00 3.804041e-09
-6.380000e+00 3.900551e-09
-6.370000e+00 3.959343e-09
-6.360000e+00 3.970874e-09
-6.350000e+00 3.926489e-09
-6.340000e+00 3.818645e-09
-6.330000e+00 3.641116e-09
-6.320000e+00 3.389172e-09
-6.310000e+00 3.059732e-09
-6.300000e+00 2.651484e-09
-6.290000e+00 2.164966e-09
-6.280000e+00 1.602617e-09
-6.270000e+00 9.687823e-10
-6.260000e+00 2.696851e-10
-6.250000e+00 -4.866454e-10
-6.240000e+00 -1.290482e-09
-6.230000e+00 -2.130547e-09
-6.220000e+00 -2.994187e-09
-6.210000e+00 -3.867594e-09
-6.200000e+00 -4.736034e-09
-6.190000e+00 -5.584119e-09
-6.180000e+00 -6.396085e-09
-6.170000e+00 -7.156083e-09
-6.160000e+00 -7.848489e-09
-6.150000e+00 -8.458207e-09
-6.140000e+00 -8.970966e-09
-6.130000e+00 -9.373617e-09
-6.120000e+00 -9.654402e-09
-6.110000e+00 -9.803215e-09
-6.100000e+00 -9.811830e-09
-6.090000e+00 -9.674090e-09
-6.080000e+00 -9.386082e-09
-6.070000e+00 -8.946245e-09
-6.060000e+00 -8.355462e-09
-6.050000e+00 -7.617091e-09
-6.040000e+00 -6.736956e-09
-6.030000e+00 -5.723295e-09
-6.020000e+00 -4.586656e-09
-6.010000e+00 -3.339752e-09
-6.000000e+00 -1.997274e-09
-5.990000e+00 -5.756641e-10
-5.980000e+00 9.071477e-10
-5.970000e+00 2.432040e-09
-5.960000e+00 3.979016e-09
-5.950000e+00 5.527553e-09
-5.940000e+00 7.056951e-09
-5.930000e+00 8.546700e-09
-5.920000e+00 9.976850e-09
-5.910000e+00 1.132837e-08
-5.900000e+00 1.258348e-08
-5.890000e+00 1.372603e-08
-5.880000e+00 1.474175e-08
-5.870000e+00 1.561856e-08
-5.860000e+00 1.634679e-08
-5.850000e+00 1.691941e-08
-5.840000e+00 1.733214e-08
-5.830000e+00 1.758360e-08
-5.820000e+00 1.767530e-08
-5.810000e+00 1.761175e-08
-5.800000e+00 1.740029e-08
-5.790000e+00 1.705105e-08
-5.780000e+00 1.657681e-08
-5.770000e+00 1.599273e-08
-5.760000e+00 1.531617e-08
-5.750000e+00 1.456637e-08
-5.740000e+00 1.376410e-08
-5.730000e+00 1.293132e-08
-5.720000e+00 1.209081e-08
-5.710000e+00 1.126574e-08
-5.700000e+00 1.047926e-08
-5.690000e+00 9.754090e-09
-5.680000e+00 9.112100e-09
-5.670000e+00 8.573904e-09
-5.660000e+00 8.158480e-09
-5.650000e+00 7.882801e-09
-5.640000e+00 7.761518e-09
-5.630000e+00 7.806662e-09
-5.620000e+00 8.027410e-09
-5.610000e+00 8.429881e-09
-5.600000e+00 9.016997e-09
-5.590000e+00 9.788399e-09
-5.580000e+00 1.074042e-08
-5.570000e+00 1.186610e-08
-5.560000e+00 1.315531e-08
-5.550000e+00 1.459486e-08
-5.540000e+00 1.616872e-08
-5.530000e+00 1.785830e-08
-5.520000e+00 1.964272e-08
-5.510000e+00 2.149916e-08
-5.500000e+00 2.340327e-08
-5.490000e+00 2.532956e-08
-5.480000e+00 2.725186e-08
-5.470000e+00 2.914377e-08
-5.460000e+00 3.097911e-08
-5.450000e+00 3.273242e-08
-5.440000e+00 3.437936e-08
-5.430000e+00 3.589721e-08
-5.420000e+00 3.726523e-08
-5.410000e+00 3.846510e-08
-5.400000e+00 3.948120e-08
-5.390000e+00 4.030098e-08
-5.380000e+00 4.091514e-08
-5.370000e+00 4.131788e-08
-5.360000e+00 4.150698e-08
-5.350000e+00 4.148393e-08
-5.340000e+00 4.125389e-08
-5.330000e+00 4.082568e-08
-5.320000e+00 4.021161e-08
-5.310000e+00 3.942735e-08
-5.300000e+00 3.849164e-08
-5.290000e+00 3.742606e-08
-5.280000e+00 3.625463e-08
-5.270000e+00 3.500344e-08
-5.260000e+00 3.370027e-08
-5.250000e+00 3.237405e-08
-5.240000e+00 3.105446e-08
-5.230000e+00 2.977139e-08
-5.220000e+00 2.855447e-08
-5.210000e+00 2.743256e-08
-5.200000e+00 2.643328e-08
-5.190000e+00 2.558253e-08
-5.180000e+00 2.490408e-08
-5.170000e+00 2.441915e-08
-5.160000e+00 2.414604e-08
-5.150000e+00 2.409989e-08
-5.140000e+00 2.429234e-08
-5.130000e+00 2.473139e-08
-5.120000e+00 2.542125e-08
-5.110000e+00 2.636227e-08
-5.100000e+00 2.755097e-08
-5.090000e+00 2.898005e-08
-5.080000e+00 3.063855e-08
-5.070000e+00 3.251206e-08
-5.060000e+00 3.458291e-08
-5.050000e+00 3.683056e-08
-5.040000e+00 3.923186e-08
-5.030000e+00 4.176155e-08
-5.020000e+00 4.439259e-08
-5.010000e+00 4.709669e-08
-5.000000e+00 4.984480e-08
-4.990000e+00 5.260755e-08
-4.980000e+00 5.535581e-08
-4.970000e+00 5.806114e-08
-4.960000e+00 6.069630e-08
-4.950000e+00 6.323569e-08
-4.940000e+00 6.565578e-08
-4.930000e+00 6.793555e-08
-4.920000e+00 7.005675e-08
-4.910000e+00 7.200428e-08
-4.900000e+00 7.376637e-08
-4.890000e+00 7.533482e-08
-4.880000e+00 7.670510e-08
-4.870000e+00 7.787639e-08
-4.860000e+00 7.885162e-08
-4.850000e+00 7.963733e-08
-4.840000e+00 8.024363e-08
-4.830000e+00 8.068393e-08
-4.820000e+00 8.097471e-08
-4.810000e+00 8.113527e-08
-4.800000e+00 8.118732e-08
-4.790000e+00 8.115459e-08
-4.780000e+00 8.106250e-08
-4.770000e+00 8.093759e-08
-4.760000e+00 8.080715e-08
-4.750000e+00 8.069873e-08
-4.740000e+00 8.063962e-08
-4.730000e+00 8.065644e-08
-4.720000e+00 8.077465e-08
-4.710000e+00 8.101819e-08
-4.700000e+00 8.140895e-08
-4.690000e+00 8.196658e-08
-4.680000e+00 8.270803e-08
-4.670000e+00 8.364737e-08
-4.660000e+00 8.479556e-08
-4.650000e+00 8.616026e-08
-4.640000e+00 8.774574e-08
-4.630000e+00 8.955292e-08
-4.620000e+00 9.157925e-08
-4.610000e+00 9.381892e-08
-4.600000e+00 9.626294e-08
-4.590000e+00 9.889933e-08
-4.580000e+00 1.017134e-07
-4.570000e+00 1.046880e-07
-4.560000e+00 1.078040e-07
-4.550000e+00 1.110402e-07
-4.540000e+00 1.143745e-07
-4.530000e+00 1.177835e-07
-4.520000e+00 1.212436e-07
-4.510000e+00 1.247309e-07
-4.500000e+00 1.282220e-07
-4.490000e+00 1.316942e-07
-4.480000e+00 1.351261e-07
-4.470000e+00 1.384978e-07
-4.460000e+00 1.417914e-07
-4.450000e+00 1.449910e-07
-4.440000e+00 1.480836e-07
-4.430000e+00 1.510586e-07
-4.420000e+00 1.539085e-07
-4.410000e+00 1.566286e-07
-4.400000e+00 1.592175e-07
-4.390000e+00 1.616768e-07
-4.380000e+00 1.640112e-07
-4.370000e+00 1.662284e-07
-4.360000e+00 1.683387e-07
-4.350000e+00 1.703553e-07
-4.340000e+00 1.722937e-07
-4.330000e+00 1.741714e-07
-4.320000e+00 1.760077e-07
-4.310000e+00 1.778235e-07
-4.300000e+00 1.796406e-07
-4.290000e+00 1.814816e-07
-4.280000e+00 1.833695e-07
-4.270000e+00 1.853270e-07
-4.260000e+00 1.873766e-07
-4.250000e+00 1.895400e-07
-4.240000e+00 1.918374e-07
-4.230000e+00 1.942880e-07
-4.220000e+00 1.969088e-07
-4.210000e+00 1.997149e-07
-4.200000e+00 2.027192e-07
-4.190000e+00 2.059322e-07
-4.180000e+00 2.093616e-07
-4.170000e+00 2.130127e-07
-4.160000e+00 2.168880e-07
-4.150000e+00 2.209871e-07
-4.140000e+00 2.253074e-07
-4.130000e+00 2.298434e-07
-4.120000e+00 2.345873e-07
-4.110000e+00 2.395292e-07
-4.100000e+00 2.446573e-07
-4.090000e+00 2.499577e-07
-4.080000e+00 2.554154e-07
-4.070000e+00 2.610141e-07
-4.060000e+00 2.667366e-07
-4.050000e+00 2.725654e-07
-4.040000e+00 2.784824e-07
-4.030000e+00 2.844700e-07
-4.020000e+00 2.905109e-07
-4.010000e+00 2.965884e-07
-4.000000e+00 3.026871e-07
-3.990000e+00 3.087924e-07
-3.980000e+00 3.148917e-07
-3.970000e+00 3.209738e-07
-3.960000e+00 3.270293e-07
-3.950000e+00 3.330508e-07
-3.940001e+00 3.390331e-07
-3.930000e+00 3.449730e-07
-3.920000e+00 3.508691e-07
-3.910000e+00 3.567226e-07
-3.900001e+00 3.625361e-07
-3.890000e+00 3.683146e-07
-3.880000e+00 3.740644e-07
-3.870000e+00 3.797937e-07
-3.860001e+00 3.855118e-07
-3.850000e+00 3.912294e-07
-3.840000e+00 3.969578e-07
-3.830000e+00 4.027094e-07
-3.820001e+00 4.084965e-07
-3.810000e+00 4.143321e-07
-3.800000e+00 4.202287e-07
-3.790000e+00 4.261988e-07
-3.780000e+00 4.322542e-07
-3.770000e+00 4.384059e-07
-3.760000e+00 4.446640e-07
-3.750000e+00 4.510377e-07
-3.740000e+00 4.575346e-07
-3.730000e+00 4.641612e-07
-3.720000e+00 4.709225e-07
-3.710000e+00 4.778219e-07
-3.700000e+00 4.848615e-07
-3.690001e+00 4.920419e-07
-3.680000e+00 4.993622e-07
-3.670000e+00 5.068201e-07
-3.660000e+00 5.144124e-07
-3.650001e+00 5.221345e-07
-3.640000e+00 5.299809e-07
-3.630000e+00 5.379456e-07
-3.620000e+00 5.460218e-07
-3.610001e+00 5.542023e-07
-3.600000e+00 5.624801e-07
-3.590000e+00 5.708480e-07
-3.580000e+00 5.792989e-07
-3.570001e+00 5.878267e-07
-3.560000e+00 5.964256e-07
-3.550000e+00 6.050907e-07
-3.540000e+00 6.138184e-07
-3.530000e+00 6.226059e-07
-3.520000e+00 6.314518e-07
-3.510000e+00 6.403562e-07
-3.500000e+00 6.493206e-07
-3.490000e+00 6.583479e-07
-3.480000e+00 6.674426e-07
-3.470000e+00 6.766106e-07
-3.460000e+00 6.858593e-07
-3.450000e+00 6.951975e-07
-3.440001e+00 7.046349e-07
-3.430000e+00 7.141829e-07
-3.420000e+00 7.238532e-07
-3.410000e+00 7.336590e-07
-3.400001e+00 7.436135e-07
-3.390000e+00 7.537308e-07
-3.380000e+00 7.640250e-07
-3.370000e+00 7.745103e-07
-3.360001e+00 7.852007e-07
-3.350000e+00 7.961099e-07
-3.340000e+00 8.072510e-07
-3.330000e+00 8.186362e-07
-3.320001e+00 8.302771e-07
-3.310000e+00 8.421840e-07
-3.300000e+00 8.543660e-07
-3.290000e+00 8.668310e-07
-3.280000e+00 8.795856e-07
-3.270000e+00 8.926348e-07
-3.260000e+00 9.059819e-07
-3.250000e+00 9.196292e-07
-3.240000e+00 9.335772e-07
-3.230000e+00 9.478251e-07
-3.220000e+00 9.623709e-07
-3.210000e+00 9.772108e-07
-3.200000e+00 9.923403e-07
-3.190001e+00 1.007754e-06
-3.180000e+00 1.023445e-06
-3.170000e+00 1.039406e-06
-3.160000e+00 1.055630e-06
-3.150001e+00 1.072108e-06
-3.140000e+00 1.088832e-06
-3.130000e+00 1.105793e-06
-3.120000e+00 1.122983e-06
-3.110001e+00 1.140394e-06
-3.100000e+00 1.158019e-06
-3.090000e+00 1.175850e-06
-3.080000e+00 1.193880e-06
-3.070001e+00 1.212105e-06
-3.060000e+00 1.230520e-06
-3.050000e+00 1.249121e-06
-3.040000e+00 1.267905e-06
-3.030000e+00 1.286871e-06
-3.020000e+00 1.306017e-06
-3.010000e+00 1.325344e-06
-3.000000e+00 1.344853e-06
-2.990000e+00 1.364547e-06
-2.980000e+00 1.384427e-06
-2.970000e+00 1.404498e-06
-2.960000e+00 1.424764e-06
-2.950000e+00 1.445228e-06
-2.940001e+00 1.465896e-06
-2.930000e+00 1.486773e-06
-2.920000e+00 1.507865e-06
-2.910000e+00 1.529175e-06
-2.900001e+00 1.550709e-06
-2.890000e+00 1.572472e-06
-2.880000e+00 1.594467e-06
-2.870000e+00 1.616697e-06
-2.860001e+00 1.639167e-06
-2.850000e+00 1.661877e-06
-2.840000e+00 1.684831e-06
-2.830000e+00 1.708027e-06
-2.820001e+00 1.731466e-06
-2.810000e+00 1.755148e-06
-2.800000e+00 1.779070e-06
-2.790000e+00 1.803232e-06
-2.780000e+00 1.827629e-06
-2.770000e+00 1.852259e-06
-2.760000e+00 1.877117e-06
-2.750000e+00 1.902201e-06
-2.740000e+00 1.927506e-06
-2.730000e+00 1.953028e-06
-2.720000e+00 1.978763e-06
-2.710000e+00 2.004708e-06
-2.700000e+00 2.030859e-06
-2.690001e+00 2.057215e-06
-2.680000e+00 2.083774e-06
-2.670000e+00 2.110536e-06
-2.660000e+00 2.137500e-06
-2.650001e+00 2.164670e-06
-2.640000e+00 2.192047e-06
-2.630000e+00 2.219636e-06
-2.620000e+00 2.247444e-06
-2.610001e+00 2.275477e-06
-2.600000e+00 2.303745e-06
-2.590000e+00 2.332257e-06
-2.580000e+00 2.361026e-06
-2.570001e+00 2.390065e-06
-2.560000e+00 2.419388e-06
-2.550000e+00 2.449011e-06
-2.540000e+00 2.478951e-06
-2.530001e+00 2.509225e-06
-2.520000e+00 2.539852e-06
-2.510000e+00 2.570852e-06
-2.500000e+00 2.602242e-06
-2.490000e+00 2.634043e-06
-2.480000e+00 2.666273e-06
-2.470000e+00 2.698953e-06
-2.460000e+00 2.732100e-06
-2.450000e+00 2.765733e-06
-2.440001e+00 2.799868e-06
-2.430000e+00 2.834521e-06
-2.420000e+00 2.869706e-06
-2.410000e+00 2.905436e-06
-2.400001e+00 2.941723e-06
-2.390000e+00 2.978576e-06
-2.380000e+00 3.016002e-06
-2.370000e+00 3.054007e-06
-2.360001e+00 3.092595e-06
-2.350000e+00 3.131767e-06
-2.340000e+00 3.171524e-06
-2.330000e+00 3.211861e-06
-2.320001e+00 3.252775e-06
-2.310000e+00 3.294260e-06
-2.300000e+00 3.336307e-06
-2.290000e+00 3.378908e-06
-2.280001e+00 3.422052e-06
-2.270000e+00 3.465724e-06
-2.260000e+00 3.509914e-06
-2.250000e+00 3.554607e-06
-2.240000e+00 3.599787e-06
-2.230000e+00 3.645441e-06
-2.220000e+00 3.691552e-06
-2.210000e+00 3.738107e-06
-2.200000e+00 3.785090e-06
-2.190001e+00 3.832487e-06
-2.180000e+00 3.880285e-06
-2.170000e+00 3.928472e-06
-2.160000e+00 3.977038e-06
-2.150001e+00 4.025971e-06
-2.140000e+00 4.075266e-06
-2.130000e+00 4.124914e-06
-2.120000e+00 4.174912e-06
-2.110001e+00 4.225256e-06
-2.100000e+00 4.275948e-06
-2.090000e+00 4.326985e-06
-2.080000e+00 4.378373e-06
-2.070001e+00 4.430115e-06
-2.060000e+00 4.482220e-06
-2.050000e+00 4.534694e-06
-2.040000e+00 4.587549e-06
-2.030001e+00 4.640794e-06
-2.020000e+00 4.694445e-06
-2.010000e+00 4.748513e-06
-2.000000e+00 4.803014e-06
-1.990000e+00 4.857964e-06
-1.980000e+00 4.913379e-06
-1.970000e+00 4.969274e-06
-1.960000e+00 5.025667e-06
-1.950000e+00 5.082573e-06
-1.940001e+00 5.140010e-06
-1.930000e+00 5.197991e-06
-1.920000e+00 5.256531e-06
-1.910000e+00 5.315646e-06
-1.900001e+00 5.375346e-06
-1.890000e+00 5.435644e-06
-1.880000e+00 5.496549e-06
-1.870000e+00 5.558071e-06
-1.860001e+00 5.620216e-06
-1.850000e+00 5.682991e-06
-1.840000e+00 5.746399e-06
-1.830000e+00 5.810443e-06
-1.820001e+00 5.875125e-06
-1.810000e+00 5.940443e-06
-1.800000e+00 6.006397e-06
-1.790000e+00 6.072985e-06
-1.780001e+00 6.140202e-06
-1.770000e+00 6.208043e-06
-1.760000e+00 6.276504e-06
-1.750000e+00 6.345579e-06
-1.740000e+00 6.415261e-06
-1.730000e+00 6.485546e-06
-1.720000e+00 6.556426e-06
-1.710000e+00 6.627896e-06
-1.700000e+00 6.699952e-06
-1.690001e+00 6.772588e-06
-1.680000e+00 6.845802e-06
-1.670000e+00 6.919591e-06
-1.660000e+00 6.993955e-06
-1.650001e+00 7.068893e-06
-1.640000e+00 7.144408e-06
-1.630000e+00 7.220503e-06
-1.620000e+00 7.297183e-06
-1.610001e+00 7.374456e-06
-1.600000e+00 7.452330e-06
-1.590000e+00 7.530816e-06
-1.580000e+00 7.609924e-06
-1.570001e+00 7.689669e-06
-1.560000e+00 7.770065e-06
-1.550000e+00 7.851128e-06
-1.540000e+00 7.932875e-06
-1.530001e+00 8.015323e-06
-1.520000e+00 8.098493e-06
-1.510000e+00 8.182401e-06
-1.500000e+00 8.267066e-06
-1.490000e+00 8.352509e-06
-1.480000e+00 8.438747e-06
-1.470000e+00 8.525795e-06
-1.460000e+00 8.613675e-06
-1.450000e+00 8.702399e-06
-1.440001e+00 8.791981e-06
-1.430000e+00 8.882434e-06
-1.420000e+00 8.973768e-06
-1.410000e+00 9.065992e-06
-1.400001e+00 9.159110e-06
-1.390000e+00 9.253129e-06
-1.380000e+00 9.348046e-06
-1.370000e+00 9.443862e-06
-1.360001e+00 9.540571e-06
-1.350000e+00 9.638168e-06
-1.340000e+00 9.736644e-06
-1.330000e+00 9.835985e-06
-1.320001e+00 9.936179e-06
-1.310000e+00 1.003721e-05
-1.300000e+00 1.013906e-05
-1.290000e+00 1.024171e-05
-1.280001e+00 1.034513e-05
-1.270000e+00 1.044931e-05
-1.260000e+00 1.055423e-05
-1.250000e+00 1.065985e-05
-1.240000e+00 1.076616e-05
-1.230000e+00 1.087313e-05
-1.220000e+00 1.098074e-05
-1.210000e+00 1.108897e-05
-1.200000e+00 1.119780e-05
-1.190001e+00 1.130721e-05
-1.180000e+00 1.141719e-05
-1.170000e+00 1.152771e-05
-1.160000e+00 1.163877e-05
-1.150001e+00 1.175036e-05
-1.140000e+00 1.186246e-05
-1.130000e+00 1.197509e-05
-1.120000e+00 1.208824e-05
-1.110001e+00 1.220190e-05
-1.100000e+00 1.231610e-05
-1.090000e+00 1.243083e-05
-1.080000e+00 1.254611e-05
-1.070001e+00 1.266195e-05
-1.060000e+00 1.277837e-05
-1.050000e+00 1.289540e-05
-1.040000e+00 1.301305e-05
-1.030001e+00 1.313135e-05
-1.020000e+00 1.325032e-05