-1.200000e+01 0.000000e+00
-1.199000e+01 0.000000e+00
-1.198000e+01 0.000000e+00
-1.197000e+01 0.000000e+00
-1.196000e+01 0.000000e+00
-1.195000e+01 0.000000e+00
-1.194000e+01 -1.401298e-45
-1.193000e+01 -5.954839e-37
-1.192000e+01 -1.109028e-35
-1.191000e+01 -1.081964e-34
-1.190000e+01 -7.360591e-34
-1.189000e+01 -3.922472e-33
-1.188000e+01 -1.744154e-32
-1.187000e+01 -6.731938e-32
-1.186000e+01 -2.316876e-31
-1.185000e+01 -7.249181e-31
-1.184000e+01 -2.092272e-30
-1.183000e+01 -5.633591e-30
-1.182000e+01 -1.427827e-29
-1.181000e+01 -3.431100e-29
-1.180000e+01 -7.864035e-29
-1.179000e+01 -1.727704e-28
-1.178000e+01 -3.653636e-28
-1.177000e+01 -7.463880e-28
-1.176000e+01 -1.477480e-27
-1.175000e+01 -2.841531e-27
-1.174000e+01 -5.321889e-27
-1.173000e+01 -9.726313e-27
-1.172000e+01 -1.737729e-26
-1.171000e+01 -3.039916e-26
-1.170000e+01 -5.214429e-26
-1.169000e+01 -8.781567e-26
-1.168000e+01 -1.453638e-25
-1.167000e+01 -2.367608e-25
-1.166000e+01 -3.797871e-25
-1.165000e+01 -6.005064e-25
-1.164000e+01 -9.366543e-25
-1.163000e+01 -1.442226e-24
-1.162000e+01 -2.193622e-24
-1.161000e+01 -3.297795e-24
-1.160000e+01 -4.902943e-24
-1.159000e+01 -7.212420e-24
-1.158000e+01 -1.050265e-23
-1.157000e+01 -1.514602e-23
-1.156000e+01 -2.163979e-23
-1.155000e+01 -3.064251e-23
-1.154000e+01 -4.301919e-23
-1.153000e+01 -5.989722e-23
-1.152000e+01 -8.273467e-23
-1.151000e+01 -1.134035e-22
-1.150000e+01 -1.542898e-22
-1.149000e+01 -2.084135e-22
-1.148000e+01 -2.795706e-22
-1.147000e+01 -3.725011e-22
-1.146000e+01 -4.930842e-22
-1.145000e+01 -6.485657e-22
-1.144000e+01 -8.478187e-22
-1.143000e+01 -1.101642e-21
-1.142000e+01 -1.423094e-21
-1.141000e+01 -1.827873e-21
-1.140000e+01 -2.334737e-21
-1.139000e+01 -2.965958e-21
-1.138000e+01 -3.747829e-21
-1.137000e+01 -4.711199e-21
-1.136000e+01 -5.892050e-21
-1.135000e+01 -7.332090e-21
-1.134000e+01 -9.079378e-21
-1.133000e+01 -1.118894e-20
-1.132000e+01 -1.372339e-20
-1.131000e+01 -1.675352e-20
-1.130000e+01 -2.035885e-20
-1.129000e+01 -2.462807e-20
-1.128000e+01 -2.965946e-20
-1.127000e+01 -3.556106e-20
-1.126000e+01 -4.245081e-20
-1.125000e+01 -5.045632e-20
-1.124000e+01 -5.971452e-20
-1.123000e+01 -7.037094e-20
-1.122000e+01 -8.257864e-20
-1.121000e+01 -9.649673e-20
-1.120000e+01 -1.122885e-19
-1.119000e+01 -1.301190e-19
-1.118000e+01 -1.501519e-19
-1.117000e+01 -1.725462e-19
-1.116000e+01 -1.974519e-19
-1.115000e+01 -2.250051e-19
-1.114000e+01 -2.553224e-19
-1.113000e+01 -2.884950e-19
-1.112000e+01 -3.245814e-19
-1.111000e+01 -3.636002e-19
-1.110000e+01 -4.055220e-19
-1.109000e+01 -4.502605e-19
-1.108000e+01 -4.976638e-19
-1.107000e+01 -5.475049e-19
-1.106000e+01 -5.994728e-19
-1.105000e+01 -6.531623e-19
-1.104000e+01 -7.080658e-19
-1.103000e+01 -7.635648e-19
-1.102000e+01 -8.189215e-19
-1.101000e+01 -8.732739e-19
-1.100000e+01 -9.256296e-19
-1.099000e+01 -9.748634e-19
-1.098000e+01 -1.019717e-18
-1.097000e+01 -1.058799e-18
-1.096000e+01 -1.090595e-18
-1.095000e+01 -1.113468e-18
-1.094000e+01 -1.125678e-18
-1.093000e+01 -1.125395e-18
-1.092000e+01 -1.110721e-18
-1.091000e+01 -1.079713e-18
-1.090000e+01 -1.030419e-18
-1.089000e+01 -9.609059e-19
-1.088000e+01 -8.693053e-19
-1.087000e+01 -7.538552e-19
-1.086000e+01 -6.129511e-19
-1.085000e+01 -4.451980e-19
-1.084000e+01 -2.494673e-19
-1.083000e+01 -2.495630e-20
-1.082000e+01 2.287507e-19
-1.081000e+01 5.116209e-19
-1.080000e+01 8.231119e-19
-1.079000e+01 1.162112e-18
-1.078000e+01 1.526886e-18
-1.077000e+01 1.915023e-18
-1.076000e+01 2.323393e-18
-1.075000e+01 2.748117e-18
-1.074000e+01 3.184535e-18
-1.073000e+01 3.627205e-18
-1.072000e+01 4.069899e-18
-1.071000e+01 4.505631e-18
-1.070000e+01 4.926686e-18
-1.069000e+01 5.324689e-18
-1.068000e+01 5.690674e-18
-1.067000e+01 6.015195e-18
-1.066000e+01 6.288439e-18
-1.065000e+01 6.500376e-18
-1.064000e+01 6.640924e-18
-1.063000e+01 6.700136e-18
-1.062000e+01 6.668403e-18
-1.061000e+01 6.536680e-18
-1.060000e+01 6.296715e-18
-1.059000e+01 5.941296e-18
-1.058000e+01 5.464502e-18
-1.057000e+01 4.861949e-18
-1.056000e+01 4.131036e-18
-1.055000e+01 3.271177e-18
-1.054000e+01 2.284013e-18
-1.053000e+01 1.173604e-18
-1.052000e+01 -5.341859e-20
-1.051000e+01 -1.387734e-18
-1.050000e+01 -2.817260e-18
-1.049000e+01 -4.327139e-18
-1.048000e+01 -5.899781e-18
-1.047000e+01 -7.514970e-18
-1.046000e+01 -9.150037e-18
-1.045000e+01 -1.078012e-17
-1.044000e+01 -1.237850e-17
-1.043000e+01 -1.391694e-17
-1.042000e+01 -1.536625e-17
-1.041000e+01 -1.669676e-17
-1.040000e+01 -1.787895e-17
-1.039000e+01 -1.888410e-17
-1.038000e+01 -1.968504e-17
-1.037000e+01 -2.025682e-17
-1.036000e+01 -2.057754e-17
-1.035000e+01 -2.062903e-17
-1.034000e+01 -2.039767e-17
-1.033000e+01 -1.987504e-17
-1.032000e+01 -1.905857e-17
-1.031000e+01 -1.795209e-17
-1.030000e+01 -1.656629e-17
-1.029000e+01 -1.491901e-17
-1.028000e+01 -1.303542e-17
-1.027000e+01 -1.094797e-17
-1.026000e+01 -8.696218e-18
-1.025000e+01 -6.326365e-18
-1.024000e+01 -3.890616e-18
-1.023000e+01 -1.446294e-18
-1.022000e+01 9.452911e-19
-1.021000e+01 3.220203e-18
-1.020000e+01 5.313467e-18
-1.019000e+01 7.160871e-18
-1.018000e+01 8.700958e-18
-1.017000e+01 9.877168e-18
-1.016000e+01 1.064011e-17
-1.015000e+01 1.094989e-17
-1.014000e+01 1.077849e-17
-1.013000e+01 1.011207e-17
-1.012000e+01 8.953180e-18
-1.011000e+01 7.322788e-18
-1.010000e+01 5.262050e-18
-1.009000e+01 2.833746e-18
-1.008000e+01 1.232898e-19
-1.007000e+01 -2.760750e-18
-1.006000e+01 -5.686705e-18
-1.005000e+01 -8.500509e-18
-1.004000e+01 -1.102711e-17
-1.003000e+01 -1.307262e-17
-1.002000e+01 -1.442734e-17
-1.001000e+01 -1.486950e-17
-1.000000e+01 -1.416995e-17
-9.990000e+00 -1.209759e-17
-9.980000e+00 -8.425663e-18
-9.970000e+00 -2.938715e-18
-9.960000e+00 4.559750e-18
-9.950000e+00 1.423908e-17
-9.940001e+00 2.623289e-17
-9.930000e+00 4.063021e-17
-9.920000e+00 5.746659e-17
-9.910000e+00 7.671534e-17
-9.900000e+00 9.827918e-17
-9.890000e+00 1.219825e-16
-9.880000e+00 1.475644e-16
-9.870000e+00 1.746734e-16
-9.860001e+00 2.028627e-16
-9.850000e+00 2.315882e-16
-9.840000e+00 2.602075e-16
-9.830000e+00 2.879825e-16
-9.820000e+00 3.140829e-16
-9.809999e+00 3.375937e-16
-9.800000e+00 3.575249e-16
-9.790000e+00 3.728244e-16
-9.780000e+00 3.823940e-16
-9.770000e+00 3.851085e-16
-9.760000e+00 3.798374e-16
-9.750000e+00 3.654701e-16
-9.740000e+00 3.409431e-16
-9.730000e+00 3.052702e-16
-9.720000e+00 2.575740e-16
-9.710000e+00 1.971192e-16
-9.700000e+00 1.233470e-16
-9.690001e+00 3.590924e-17
-9.680000e+00 -6.529723e-17
-9.670000e+00 -1.800981e-16
-9.660000e+00 -3.080107e-16
-9.650000e+00 -4.482164e-16
-9.640000e+00 -5.995365e-16
-9.630000e+00 -7.604133e-16
-9.620000e+00 -9.288972e-16
-9.610001e+00 -1.102639e-15
-9.600000e+00 -1.278893e-15
-9.590000e+00 -1.454524e-15
-9.580000e+00 -1.626026e-15
-9.570000e+00 -1.789552e-15
-9.559999e+00 -1.940948e-15
-9.550000e+00 -2.075808e-15
-9.540000e+00 -2.189525e-15
-9.530000e+00 -2.277365e-15
-9.520000e+00 -2.334547e-15
-9.510000e+00 -2.356326e-15
-9.500000e+00 -2.338097e-15
-9.490000e+00 -2.275493e-15
-9.480000e+00 -2.164504e-15
-9.470000e+00 -2.001583e-15
-9.460000e+00 -1.783772e-15
-9.450000e+00 -1.508818e-15
-9.440001e+00 -1.175289e-15
-9.430000e+00 -7.826890e-16
-9.420000e+00 -3.315649e-16
-9.410000e+00 1.763972e-16
-9.400000e+00 7.382868e-16
-9.390000e+00 1.349899e-15
-9.380000e+00 2.005683e-15
-9.370000e+00 2.698709e-15
-9.360001e+00 3.420662e-15
-9.350000e+00 4.161856e-15
-9.340000e+00 4.911281e-15
-9.330000e+00 5.656674e-15
-9.320000e+00 6.384623e-15
-9.309999e+00 7.080702e-15
-9.300000e+00 7.729638e-15
-9.290000e+00 8.315505e-15
-9.280000e+00 8.821952e-15
-9.270000e+00 9.232462e-15
-9.260000e+00 9.530626e-15
-9.250000e+00 9.700453e-15
-9.240000e+00 9.726694e-15
-9.230000e+00 9.595173e-15
-9.220000e+00 9.293148e-15
-9.210000e+00 8.809651e-15
-9.200000e+00 8.135851e-15
-9.190001e+00 7.265387e-15
-9.180000e+00 6.194703e-15
-9.170000e+00 4.923347e-15
-9.160000e+00 3.454250e-15
-9.150000e+00 1.793959e-15
-9.140000e+00 -4.716873e-17
-9.130000e+00 -2.054826e-15
-9.120000e+00 -4.210676e-15
-9.110001e+00 -6.492333e-15
-9.100000e+00 -8.873421e-15
-9.090000e+00 -1.132369e-14
-9.080000e+00 -1.380925e-14
-9.070000e+00 -1.629283e-14
-9.060000e+00 -1.873414e-14
-9.050000e+00 -2.109036e-14
-9.040000e+00 -2.331664e-14
-9.030000e+00 -2.536669e-14
-9.020000e+00 -2.719348e-14
-9.010000e+00 -2.874997e-14
-9.000000e+00 -2.998989e-14
-8.990000e+00 -3.086858e-14
-8.980000e+00 -3.134387e-14
-8.970000e+00 -3.137695e-14
-8.960000e+00 -3.093327e-14
-8.950000e+00 -2.998342e-14
-8.940001e+00 -2.850403e-14
-8.930000e+00 -2.647851e-14
-8.920000e+00 -2.389785e-14
-8.910000e+00 -2.076132e-14
-8.900000e+00 -1.707701e-14
-8.890000e+00 -1.286233e-14
-8.880000e+00 -8.144348e-15
-8.870000e+00 -2.959996e-15
-8.860001e+00 2.643866e-15
-8.850000e+00 8.610570e-15
-8.840000e+00 1.487391e-14
-8.830000e+00 2.135863e-14
-8.820000e+00 2.798103e-14
-8.810000e+00 3.464980e-14
-8.800000e+00 4.126705e-14
-8.790000e+00 4.772943e-14
-8.780000e+00 5.392951e-14
-8.770000e+00 5.975727e-14
-8.760000e+00 6.510166e-14
-8.750000e+00 6.985238e-14
-8.740000e+00 7.390169e-14
-8.730000e+00 7.714625e-14
-8.720000e+00 7.948908e-14
-8.710000e+00 8.084145e-14
-8.700000e+00 8.112478e-14
-8.690001e+00 8.027241e-14
-8.680000e+00 7.823143e-14
-8.670000e+00 7.496414e-14
-8.660000e+00 7.044957e-14
-8.650000e+00 6.468466e-14
-8.640000e+00 5.768525e-14
-8.630000e+00 4.948684e-14
-8.620000e+00 4.014494e-14
-8.610001e+00 2.973536e-14
-8.600000e+00 1.835384e-14
-8.590000e+00 6.115649e-15
-8.580000e+00 -6.845359e-15
-8.570000e+00 -2.037797e-14
-8.560000e+00 -3.431514e-14
-8.550000e+00 -4.847600e-14
-8.540000e+00 -6.266796e-14
-8.530000e+00 -7.668929e-14
-8.520000e+00 -9.033196e-14
-8.510000e+00 -1.033845e-13
-8.500000e+00 -1.156353e-13
-8.490000e+00 -1.268760e-13
-8.480000e+00 -1.369049e-13
-8.470000e+00 -1.455301e-13
-8.460000e+00 -1.525734e-13
-8.450000e+00 -1.578735e-13
-8.440001e+00 -1.612890e-13
-8.430000e+00 -1.627016e-13
-8.420000e+00 -1.620190e-13
-8.410000e+00 -1.591766e-13
-8.400000e+00 -1.541406e-13
-8.390000e+00 -1.469086e-13
-8.380000e+00 -1.375113e-13
-8.370000e+00 -1.260128e-13
-8.360001e+00 -1.125111e-13
-8.350000e+00 -9.713697e-14
-8.340000e+00 -8.005342e-14
-8.330000e+00 -6.145383e-14
-8.320000e+00 -4.155973e-14
-8.310000e+00 -2.061802e-14
-8.300000e+00 1.102221e-15
-8.290000e+00 2.331364e-14
-8.280000e+00 4.571472e-14
-8.270000e+00 6.799440e-14
-8.260000e+00 8.983696e-14
-8.250000e+00 1.109271e-13
-8.240000e+00 1.309551e-13
-8.230000e+00 1.496224e-13
-8.220000e+00 1.666466e-13
-8.210000e+00 1.817665e-13
-8.200000e+00 1.947473e-13
-8.190001e+00 2.053849e-13
-8.180000e+00 2.135101e-13
-8.170000e+00 2.189923e-13
-8.160000e+00 2.217422e-13
-8.150000e+00 2.217146e-13
-8.140000e+00 2.189097e-13
-8.130000e+00 2.133739e-13
-8.120000e+00 2.052000e-13
-8.110001e+00 1.945261e-13
-8.100000e+00 1.815342e-13
-8.090000e+00 1.664472e-13
-8.080000e+00 1.495260e-13
-8.070000e+00 1.310646e-13
-8.060000e+00 1.113860e-13
-8.050000e+00 9.083585e-14
-8.040000e+00 6.977663e-14
-8.030000e+00 4.858084e-14
-8.020000e+00 2.762401e-14
-8.010000e+00 7.277306e-15
-8.000000e+00 -1.209985e-14
-7.990000e+00 -3.016718e-14
-7.980000e+00 -4.661079e-14
-7.970000e+00 -6.115013e-14
-7.960000e+00 -7.354441e-14
-7.950000e+00 -8.359855e-14
-7.940000e+00 -9.116826e-14
-7.930000e+00 -9.616442e-14
-7.920000e+00 -9.855640e-14
-7.910000e+00 -9.837435e-14
-7.900000e+00 -9.571032e-14
-7.890000e+00 -9.071831e-14
-7.880000e+00 -8.361295e-14
-7.870000e+00 -7.466694e-14
-7.860000e+00 -6.420735e-14
-7.850000e+00 -5.261063e-14
-7.840000e+00 -4.029636e-14
-7.830000e+00 -2.772021e-14
-7.820000e+00 -1.536558e-14
-7.810000e+00 -3.734617e-15
-7.800000e+00 6.661573e-15
-7.790000e+00 1.531327e-14
-7.780000e+00 2.172282e-14
-7.770000e+00 2.541555e-14
-7.760000e+00 2.595062e-14
-7.750000e+00 2.293172e-14
-7.740000e+00 1.601729e-14
-7.730000e+00 4.930172e-15
-7.720000e+00 -1.053363e-14
-7.710000e+00 -3.049711e-14
-7.700000e+00 -5.499567e-14
-7.690000e+00 -8.397186e-14
-7.680000e+00 -1.172715e-13
-7.670000e+00 -1.546417e-13
-7.660000e+00 -1.957298e-13
-7.650000e+00 -2.400853e-13
-7.640000e+00 -2.871621e-13
-7.630000e+00 -3.363237e-13
-7.620000e+00 -3.868491e-13
-7.610000e+00 -4.379414e-13
-7.600000e+00 -4.887369e-13
-7.590000e+00 -5.383165e-13
-7.580000e+00 -5.857174e-13
-7.570000e+00 -6.299472e-13
-7.560000e+00 -6.699971e-13
-7.550000e+00 -7.048577e-13
-7.540000e+00 -7.335336e-13
-7.530000e+00 -7.550588e-13
-7.520000e+00 -7.685127e-13
-7.510000e+00 -7.730338e-13
-7.500000e+00 -7.678355e-13
-7.490000e+00 -7.522188e-13
-7.480000e+00 -7.255848e-13
-7.470000e+00 -6.874464e-13
-7.460000e+00 -6.374383e-13
-7.450000e+00 -5.753250e-13
-7.440000e+00 -5.010072e-13
-7.430000e+00 -4.145277e-13
-7.420000e+00 -3.160734e-13
-7.410000e+00 -2.059777e-13
-7.400000e+00 -8.471925e-14
-7.390000e+00 4.708005e-14
-7.380000e+00 1.886586e-13
-7.370000e+00 3.391208e-13
-7.360000e+00 4.974437e-13
-7.350000e+00 6.624844e-13
-7.340000e+00 8.329898e-13
-7.330000e+00 1.007605e-12
-7.320000e+00 1.184886e-12
-7.310000e+00 1.363308e-12
-7.300000e+00 1.541276e-12
-7.290000e+00 1.717136e-12
-7.280000e+00 1.889190e-12
-7.270000e+00 2.055698e-12
-7.260000e+00 2.214894e-12
-7.250000e+00 2.364993e-12
-7.240000e+00 2.504199e-12
-7.230000e+00 2.630715e-12
-7.220000e+00 2.742748e-12
-7.210000e+00 2.838517e-12
-7.200000e+00 2.916258e-12
-7.190000e+00 2.974233e-12
-7.180000e+00 3.010735e-12
-7.170000e+00 3.024092e-12
-7.160000e+00 3.012677e-12
-7.150000e+00 2.974915e-12
-7.140000e+00 2.909292e-12
-7.130000e+00 2.814363e-12
-7.120000e+00 2.688769e-12
-7.110000e+00 2.531246e-12
-7.100000e+00 2.340642e-12
-7.090000e+00 2.115941e-12
-7.080000e+00 1.856278e-12
-7.070000e+00 1.560964e-12
-7.060000e+00 1.229519e-12
-7.050000e+00 8.616937e-13
-7.040000e+00 4.575066e-13
-7.030000e+00 1.727708e-14
-7.020000e+00 -4.583386e-13
-7.010000e+00 -9.683092e-13
-7.000000e+00 -1.511190e-12
-6.990000e+00 -2.085083e-12
-6.980000e+00 -2.687603e-12
-6.970000e+00 -3.315835e-12
-6.960000e+00 -3.966306e-12
-6.950000e+00 -4.634953e-12
-6.940000e+00 -5.317094e-12
-6.930000e+00 -6.007418e-12
-6.920000e+00 -6.699962e-12
-6.910000e+00 -7.388117e-12
-6.900000e+00 -8.064624e-12
-6.890000e+00 -8.721602e-12
-6.880000e+00 -9.350565e-12
-6.870000e+00 -9.942477e-12
-6.860000e+00 -1.048779e-11
-6.850000e+00 -1.097652e-11
-6.840000e+00 -1.139834e-11
-6.830000e+00 -1.174265e-11
-6.820000e+00 -1.199874e-11
-6.810000e+00 -1.215584e-11
-6.800000e+00 -1.220334e-11
-6.790000e+00 -1.213089e-11
-6.780000e+00 -1.192859e-11
-6.770000e+00 -1.158715e-11
-6.760000e+00 -1.109809e-11
-6.750000e+00 -1.045391e-11
-6.740000e+00 -9.648289e-12
-6.730000e+00 -8.676298e-12
-6.720000e+00 -7.534568e-12
-6.710000e+00 -6.221483e-12
-6.700000e+00 -4.737370e-12
-6.690000e+00 -3.084653e-12
-6.680000e+00 -1.268014e-12
-6.670000e+00 7.054801e-13
-6.660000e+00 2.826263e-12
-6.650000e+00 5.082186e-12
-6.640000e+00 7.458462e-12
-6.630000e+00 9.937644e-12
-6.620000e+00 1.249963e-11
-6.610000e+00 1.512174e-11
-6.600000e+00 1.777875e-11
-6.590000e+00 2.044309e-11
-6.580000e+00 2.308497e-11
-6.570000e+00 2.567261e-11
-6.560000e+00 2.817251e-11
-6.550000e+00 3.054974e-11
-6.540000e+00 3.276830e-11
-6.530000e+00 3.479146e-11
-6.520000e+00 3.658225e-11
-6.510000e+00 3.810383e-11
-6.500000e+00 3.932002e-11
-6.490000e+00 4.019580e-11
-6.480000e+00 4.069781e-11
-6.470000e+00 4.079491e-11
-6.460000e+00 4.045867e-11
-6.450000e+00 3.966395e-11
-6.440000e+00 3.838943e-11
-6.430000e+00 3.661810e-11
-6.420000e+00 3.433773e-11
-6.410000e+00 3.154136e-11
-6.400000e+00 2.822766e-11
-6.390000e+00 2.440137e-11
-6.380000e+00 2.007352e-11
-6.370000e+00 1.526173e-11
-6.360000e+00 9.990351e-12
-6.350000e+00 4.290570e-12
-6.340000e+00 -1.799570e-12
-6.330000e+00 -8.235253e-12
-6.320000e+00 -1.496505e-11
-6.310000e+00 -2.193117e-11
-6.300000e+00 -2.906982e-11
-6.290000e+00 -3.631164e-11
-6.280000e+00 -4.358222e-11
-6.270000e+00 -5.080278e-11
-6.260000e+00 -5.789081e-11
-6.250000e+00 -6.476090e-11
-6.240000e+00 -7.132565e-11
-6.230000e+00 -7.749650e-11
-6.220000e+00 -8.318481e-11
-6.210000e+00 -8.830290e-11
-6.200000e+00 -9.276509e-11
-6.190000e+00 -9.648881e-11
-6.180000e+00 -9.939575e-11
-6.170000e+00 -1.014129e-10
-6.160000e+00 -1.024739e-10
-6.150000e+00 -1.025197e-10
-6.140000e+00 -1.014999e-10
-6.130000e+00 -9.937366e-11
-6.120000e+00 -9.611058e-11
-6.110000e+00 -9.169151e-11
-6.100000e+00 -8.610927e-11
-6.090000e+00 -7.936921e-11
-6.080000e+00 -7.148977e-11
-6.070000e+00 -6.250279e-11
-6.060000e+00 -5.245366e-11
-6.050000e+00 -4.140145e-11
-6.040000e+00 -2.941873e-11
-6.030000e+00 -1.659136e-11
-6.020000e+00 -3.018004e-12
-6.010000e+00 1.119043e-11
-6.000000e+00 2.591158e-11
-5.990000e+00 4.101254e-11
-5.980000e+00 5.635092e-11
-5.970000e+00 7.177613e-11
-5.960000e+00 8.713066e-11
-5.950000e+00 1.022516e-10
-5.940000e+00 1.169724e-10
-5.930000e+00 1.311241e-10
-5.920000e+00 1.445377e-10
-5.910000e+00 1.570458e-10
-5.900000e+00 1.684842e-10
-5.890000e+00 1.786940e-10
-5.880000e+00 1.875238e-10
-5.870000e+00 1.948313e-10
-5.860000e+00 2.004849e-10
-5.850000e+00 2.043663e-10
-5.840000e+00 2.063712e-10
-5.830000e+00 2.064118e-10
-5.820000e+00 2.044175e-10
-5.810000e+00 2.003370e-10
-5.800000e+00 1.941388e-10
-5.790000e+00 1.858124e-10
-5.780000e+00 1.753693e-10
-5.770000e+00 1.628432e-10
-5.760000e+00 1.482905e-10
-5.750000e+00 1.317903e-10
-5.740000e+00 1.134446e-10
-5.730000e+00 9.337731e-11
-5.720000e+00 7.173411e-11
-5.710000e+00 4.868131e-11
-5.700000e+00 2.440470e-11
-5.690000e+00 -8.917484e-13
-5.680000e+00 -2.698758e-11
-5.670000e+00 -5.364764e-11
-5.660000e+00 -8.062418e-11
-5.650000e+00 -1.076591e-10
-5.640000e+00 -1.344863e-10
-5.630000e+00 -1.608343e-10
-5.620000e+00 -1.864289e-10
-5.610000e+00 -2.109959e-10
-5.600000e+00 -2.342643e-10
-5.590000e+00 -2.559685e-10
-5.580000e+00 -2.758521e-10
-5.570000e+00 -2.936701e-10
-5.560000e+00 -3.091921e-10
-5.550000e+00 -3.222048e-10
-5.540000e+00 -3.325152e-10
-5.530000e+00 -3.399524e-10
-5.520000e+00 -3.443704e-10
-5.510000e+00 -3.456502e-10
-5.500000e+00 -3.437016e-10
-5.490000e+00 -3.384647e-10
-5.480000e+00 -3.299118e-10
-5.470000e+00 -3.180477e-10
-5.460000e+00 -3.029111e-10
-5.450000e+00 -2.845745e-10
-5.440000e+00 -2.631447e-10
-5.430000e+00 -2.387620e-10
-5.420000e+00 -2.115999e-10
-5.410000e+00 -1.818639e-10
-5.400000e+00 -1.497898e-10
-5.390000e+00 -1.156424e-10
-5.380000e+00 -7.971301e-11
-5.370000e+00 -4.231702e-11
-5.360000e+00 -3.791155e-12
-5.350000e+00 3.550968e-11
-5.340000e+00 7.521573e-11
-5.330000e+00 1.149461e-10
-5.320000e+00 1.543124e-10
-5.310000e+00 1.929230e-10
-5.300000e+00 2.303868e-10
-5.290000e+00 2.663179e-10
-5.280000e+00 3.003393e-10
-5.270000e+00 3.320876e-10
-5.260000e+00 3.612170e-10
-5.250000e+00 3.874033e-10
-5.240000e+00 4.103479e-10
-5.230000e+00 4.297816e-10
-5.220000e+00 4.454681e-10
-5.210000e+00 4.572068e-10
-5.200000e+00 4.648361e-10
-5.190000e+00 4.682356e-10
-5.180000e+00 4.673282e-10
-5.170000e+00 4.620815e-10
-5.160000e+00 4.525091e-10
-5.150000e+00 4.386711e-10
-5.140000e+00 4.206739e-10
-5.130000e+00 3.986699e-10
-5.120000e+00 3.728564e-10
-5.110000e+00 3.434738e-10
-5.100000e+00 3.108037e-10
-5.090000e+00 2.751660e-10
-5.080000e+00 2.369154e-10
-5.070000e+00 1.964381e-10
-5.060000e+00 1.541474e-10
-5.050000e+00 1.104792e-10
-5.040000e+00 6.588692e-11
-5.030000e+00 2.083625e-11
-5.020000e+00 -2.420028e-11
-5.010000e+00 -6.874910e-11
-5.000000e+00 -1.123414e-10
-4.990000e+00 -1.545188e-10
-4.980000e+00 -1.948396e-10
-4.970000e+00 -2.328841e-10
-4.960000e+00 -2.682603e-10
-4.950000e+00 -3.006090e-10
-4.940000e+00 -3.296090e-10
-4.930000e+00 -3.549812e-10
-4.920000e+00 -3.764928e-10
-4.910000e+00 -3.939610e-10
-4.900000e+00 -4.072551e-10
-4.890000e+00 -4.162993e-10
-4.880000e+00 -4.210739e-10
-4.870000e+00 -4.216158e-10
-4.860000e+00 -4.180185e-10
-4.850000e+00 -4.104315e-10
-4.840000e+00 -3.990577e-10
-4.830000e+00 -3.841519e-10
-4.820000e+00 -3.660166e-10
-4.810000e+00 -3.449986e-10
-4.800000e+00 -3.214837e-10
-4.790000e+00 -2.958913e-10
-4.780000e+00 -2.686689e-10
-4.770000e+00 -2.402843e-10
-4.760000e+00 -2.112197e-10
-4.750000e+00 -1.819640e-10
-4.740000e+00 -1.530046e-10
-4.730000e+00 -1.248202e-10
-4.720000e+00 -9.787265e-11
-4.710000e+00 -7.259927e-11
-4.700000e+00 -4.940533e-11
-4.690000e+00 -2.865675e-11
-4.680000e+00 -1.067336e-11
-4.670000e+00 4.277348e-12
-4.660000e+00 1.598579e-11
-4.650000e+00 2.430506e-11
-4.640000e+00 2.915486e-11
-4.630000e+00 3.052447e-11
-4.620000e+00 2.847466e-11
-4.610000e+00 2.313853e-11
-4.600000e+00 1.472125e-11
-4.590000e+00 3.498542e-12
-4.580000e+00 -1.018593e-11
-4.570000e+00 -2.592439e-11
-4.560000e+00 -4.324992e-11
-4.550000e+00 -6.164261e-11
-4.540000e+00 -8.053664e-11
-4.530000e+00 -9.932844e-11
-4.520000e+00 -1.173858e-10
-4.510000e+00 -1.340575e-10
-4.500000e+00 -1.486839e-10
-4.490000e+00 -1.606080e-10
-4.480000e+00 -1.691865e-10
-4.470000e+00 -1.738017e-10
-4.460000e+00 -1.738726e-10
-4.450000e+00 -1.688670e-10
-4.440000e+00 -1.583118e-10
-4.430000e+00 -1.418045e-10
-4.420000e+00 -1.190224e-10
-4.410000e+00 -8.973178e-11
-4.400000e+00 -5.379651e-11
-4.390000e+00 -1.118436e-11
-4.380000e+00 3.802721e-11
-4.370000e+00 9.364690e-11
-4.360000e+00 1.553670e-10
-4.350000e+00 2.227626e-10
-4.340000e+00 2.952920e-10
-4.330000e+00 3.722997e-10
-4.320000e+00 4.530202e-10
-4.310000e+00 5.365848e-10
-4.300000e+00 6.220285e-10
-4.290000e+00 7.083000e-10
-4.280000e+00 7.942728e-10
-4.270000e+00 8.787580e-10
-4.260000e+00 9.605171e-10
-4.250000e+00 1.038279e-09
-4.240000e+00 1.110753e-09
-4.230000e+00 1.176650e-09
-4.220000e+00 1.234696e-09
-4.210000e+00 1.283654e-09
-4.200000e+00 1.322335e-09
-4.190000e+00 1.349625e-09
-4.180000e+00 1.364496e-09
-4.170000e+00 1.366023e-09
-4.160000e+00 1.353405e-09
-4.150000e+00 1.325973e-09
-4.140000e+00 1.283207e-09
-4.130000e+00 1.224749e-09
-4.120000e+00 1.150409e-09
-4.110000e+00 1.060174e-09
-4.100000e+00 9.542181e-10
-4.090000e+00 8.328990e-10
-4.080000e+00 6.967633e-10
-4.070000e+00 5.465440e-10
-4.060000e+00 3.831568e-10
-4.050000e+00 2.076925e-10
-4.040000e+00 2.140922e-11
-4.030000e+00 -1.742800e-10
-4.020000e+00 -3.778203e-10
-4.010000e+00 -5.875318e-10
-4.000000e+00 -8.016265e-10
-3.990000e+00 -1.018230e-09
-3.980000e+00 -1.235399e-09
-3.970000e+00 -1.451151e-09
-3.960000e+00 -1.663481e-09
-3.950000e+00 -1.870390e-09
-3.940001e+00 -2.069908e-09
-3.930000e+00 -2.260123e-09
-3.920000e+00 -2.439204e-09
-3.910000e+00 -2.605422e-09
-3.900001e+00 -2.757180e-09
-3.890000e+00 -2.893032e-09
-3.880000e+00 -3.011705e-09
-3.870000e+00 -3.112118e-09
-3.860001e+00 -3.193400e-09
-3.850000e+00 -3.254903e-09
-3.840000e+00 -3.296221e-09
-3.830000e+00 -3.317190e-09
-3.820001e+00 -3.317904e-09
-3.810000e+00 -3.298711e-09
-3.800000e+00 -3.260223e-09
-3.790000e+00 -3.203306e-09
-3.780000e+00 -3.129080e-09
-3.770000e+00 -3.038906e-09
-3.760000e+00 -2.934379e-09
-3.750000e+00 -2.817311e-09
-3.740000e+00 -2.689718e-09
-3.730000e+00 -2.553792e-09
-3.720000e+00 -2.411890e-09
-3.710000e+00 -2.266501e-09
-3.700000e+00 -2.120226e-09
-3.690001e+00 -1.975749e-09
-3.680000e+00 -1.835806e-09
-3.670000e+00 -1.703161e-09
-3.660000e+00 -1.580571e-09
-3.650001e+00 -1.470759e-09
-3.640000e+00 -1.376384e-09
-3.630000e+00 -1.300010e-09
-3.620000e+00 -1.244082e-09
-3.610001e+00 -1.210891e-09
-3.600000e+00 -1.202559e-09
-3.590000e+00 -1.221005e-09
-3.580000e+00 -1.267929e-09
-3.570001e+00 -1.344794e-09
-3.560000e+00 -1.452803e-09
-3.550000e+00 -1.592890e-09
-3.540000e+00 -1.765708e-09
-3.530000e+00 -1.971620e-09
-3.520000e+00 -2.210693e-09
-3.510000e+00 -2.482698e-09
-3.500000e+00 -2.787107e-09
-3.490000e+00 -3.123105e-09
-3.480000e+00 -3.489588e-09
-3.470000e+00 -3.885178e-09
-3.460000e+00 -4.308236e-09
-3.450000e+00 -4.756874e-09
-3.440001e+00 -5.228979e-09
-3.430000e+00 -5.722226e-09
-3.420000e+00 -6.234105e-09
-3.410000e+00 -6.761944e-09
-3.400001e+00 -7.302933e-09
-3.390000e+00 -7.854153e-09
-3.380000e+00 -8.412600e-09
-3.370000e+00 -8.975218e-09
-3.360001e+00 -9.538924e-09
-3.350000e+00 -1.010064e-08
-3.340000e+00 -1.065732e-08
-3.330000e+00 -1.120598e-08
-3.320001e+00 -1.174372e-08
-3.310000e+00 -1.226775e-08
-3.300000e+00 -1.277545e-08
-3.290000e+00 -1.326432e-08
-3.280000e+00 -1.373208e-08
-3.270000e+00 -1.417666e-08
-3.260000e+00 -1.459619e-08
-3.250000e+00 -1.498909e-08
-3.240000e+00 -1.535398e-08
-3.230000e+00 -1.568982e-08
-3.220000e+00 -1.599579e-08
-3.210000e+00 -1.627141e-08
-3.200000e+00 -1.651648e-08
-3.190001e+00 -1.673107e-08
-3.180000e+00 -1.691559e-08
-3.170000e+00 -1.707074e-08
-3.160000e+00 -1.719748e-08
-3.150001e+00 -1.729710e-08
-3.140000e+00 -1.737113e-08
-3.130000e+00 -1.742139e-08
-3.120000e+00 -1.744992e-08
-3.110001e+00 -1.745902e-08
-3.100000e+00 -1.745120e-08
-3.090000e+00 -1.742914e-08
-3.080000e+00 -1.739572e-08
-3.070001e+00 -1.735396e-08
-3.060000e+00 -1.730699e-08
-3.050000e+00 -1.725807e-08
-3.040000e+00 -1.721049e-08
-3.030000e+00 -1.716759e-08
-3.020000e+00 -1.713275e-08
-3.010000e+00 -1.710931e-08
-3.000000e+00 -1.710056e-08
-2.990000e+00 -1.710972e-08
-2.980000e+00 -1.713991e-08
-2.970000e+00 -1.719411e-08
-2.960000e+00 -1.727514e-08
-2.950000e+00 -1.738562e-08
-2.940001e+00 -1.752798e-08
-2.930000e+00 -1.770441e-08
-2.920000e+00 -1.791682e-08
-2.910000e+00 -1.816687e-08
-2.900001e+00 -1.845590e-08
-2.890000e+00 -1.878498e-08
-2.880000e+00 -1.915484e-08
-2.870000e+00 -1.956588e-08
-2.860001e+00 -2.001818e-08
-2.850000e+00 -2.051148e-08
-2.840000e+00 -2.104522e-08
-2.830000e+00 -2.161847e-08
-2.820001e+00 -2.223003e-08
-2.810000e+00 -2.287839e-08
-2.800000e+00 -2.356175e-08
-2.790000e+00 -2.427806e-08
-2.780000e+00 -2.502502e-08
-2.770000e+00 -2.580013e-08
-2.760000e+00 -2.660071e-08
-2.750000e+00 -2.742393e-08
-2.740000e+00 -2.826685e-08
-2.730000e+00 -2.912646e-08
-2.720000e+00 -2.999969e-08
-2.710000e+00 -3.088350e-08
-2.700000e+00 -3.177488e-08
-2.690001e+00 -3.267089e-08
-2.680000e+00 -3.356872e-08
-2.670000e+00 -3.446575e-08
-2.660000e+00 -3.535950e-08
-2.650001e+00 -3.624776e-08
-2.640000e+00 -3.712858e-08
-2.630000e+00 -3.800030e-08
-2.620000e+00 -3.886156e-08
-2.610001e+00 -3.971138e-08
-2.600000e+00 -4.054911e-08
-2.590000e+00 -4.137448e-08
-2.580000e+00 -4.218758e-08
-2.570001e+00 -4.298891e-08
-2.560000e+00 -4.377932e-08
-2.550000e+00 -4.456006e-08
-2.540000e+00 -4.533270e-08
-2.530001e+00 -4.609917e-08
-2.520000e+00 -4.686170e-08
-2.510000e+00 -4.762281e-08
-2.500000e+00 -4.838524e-08
-2.490000e+00 -4.915198e-08
-2.480000e+00 -4.992616e-08
-2.470000e+00 -5.071103e-08
-2.460000e+00 -5.150992e-08
-2.450000e+00 -5.232620e-08
-2.440001e+00 -5.316319e-08
-2.430000e+00 -5.402415e-08
-2.420000e+00 -5.491220e-08
-2.410000e+00 -5.583029e-08
-2.400001e+00 -5.678116e-08
-2.390000e+00 -5.776728e-08
-2.380000e+00 -5.879080e-08
-2.370000e+00 -5.985353e-08
-2.360001e+00 -6.095694e-08
-2.350000e+00 -6.210204e-08
-2.340000e+00 -6.328949e-08
-2.330000e+00 -6.451949e-08
-2.320001e+00 -6.579181e-08
-2.310000e+00 -6.710578e-08
-2.300000e+00 -6.846032e-08
-2.290000e+00 -6.985395e-08
-2.280001e+00 -7.128478e-08
-2.270000e+00 -7.275060e-08
-2.260000e+00 -7.424888e-08
-2.250000e+00 -7.577681e-08
-2.240000e+00 -7.733139e-08
-2.230000e+00 -7.890940e-08
-2.220000e+00 -8.050757e-08
-2.210000e+00 -8.212255e-08
-2.200000e+00 -8.375102e-08
-2.190001e+00 -8.538976e-08
-2.180000e+00 -8.703566e-08
-2.170000e+00 -8.868586e-08
-2.160000e+00 -9.033775e-08
-2.150001e+00 -9.198909e-08
-2.140000e+00 -9.363800e-08
-2.130000e+00 -9.528306e-08
-2.120000e+00 -9.692334e-08
-2.110001e+00 -9.855840e-08
-2.100000e+00 -1.001884e-07
-2.090000e+00 -1.018140e-07
-2.080000e+00 -1.034366e-07
-2.070001e+00 -1.050580e-07
-2.060000e+00 -1.066808e-07
-2.050000e+00 -1.083079e-07
-2.040000e+00 -1.099430e-07
-2.030001e+00 -1.115902e-07
-2.020000e+00 -1.132540e-07
-2.010000e+00 -1.149395e-07
-2.000000e+00 -1.166520e-07
-1.990000e+00 -1.183971e-07
-1.980000e+00 -1.201807e-07
-1.970000e+00 -1.220087e-07
-1.960000e+00 -1.238872e-07
-1.950000e+00 -1.258224e-07
-1.940001e+00 -1.278200e-07
-1.930000e+00 -1.298859e-07
-1.920000e+00 -1.320254e-07
-1.910000e+00 -1.342437e-07
-1.900001e+00 -1.365455e-07
-1.890000e+00 -1.389349e-07
-1.880000e+00 -1.414157e-07
-1.870000e+00 -1.439907e-07
-1.860001e+00 -1.466624e-07
-1.850000e+00 -1.494324e-07
-1.840000e+00 -1.523017e-07
-1.830000e+00 -1.552705e-07
-1.820001e+00 -1.583382e-07
-1.810000e+00 -1.615037e-07
-1.800000e+00 -1.647649e-07
-1.790000e+00 -1.681193e-07
-1.780001e+00 -1.715636e-07
-1.770000e+00 -1.750940e-07
-1.760000e+00 -1.787061e-07
-1.750000e+00 -1.823953e-07
-1.740000e+00 -1.861562e-07
-1.730000e+00 -1.899837e-07
-1.720000e+00 -1.938720e-07
-1.710000e+00 -1.978155e-07
-1.700000e+00 -2.018085e-07
-1.690001e+00 -2.058456e-07
-1.680000e+00 -2.099213e-07
-1.670000e+00 -2.140305e-07
-1.660000e+00 -2.181687e-07
-1.650001e+00 -2.223316e-07
-1.640000e+00 -2.265155e-07
-1.630000e+00 -2.307174e-07
-1.620000e+00 -2.349348e-07
-1.610001e+00 -2.391662e-07
-1.600000e+00 -2.434104e-07
-1.590000e+00 -2.476673e-07
-1.580000e+00 -2.519376e-07
-1.570001e+00 -2.562224e-07
-1.560000e+00 -2.605241e-07
-1.550000e+00 -2.648454e-07
-1.540000e+00 -2.691898e-07
-1.530001e+00 -2.735615e-07
-1.520000e+00 -2.779651e-07
-1.510000e+00 -2.824059e-07
-1.500000e+00 -2.868895e-07
-1.490000e+00 -2.914219e-07
-1.480000e+00 -2.960092e-07
-1.470000e+00 -3.006579e-07
-1.460000e+00 -3.053742e-07
-1.450000e+00 -3.101645e-07
-1.440001e+00 -3.150351e-07
-1.430000e+00 -3.199919e-07
-1.420000e+00 -3.250406e-07
-1.410000e+00 -3.301864e-07
-1.400001e+00 -3.354341e-07
-1.390000e+00 -3.407879e-07
-1.380000e+00 -3.462516e-07
-1.370000e+00 -3.518283e-07
-1.360001e+00 -3.575203e-07
-1.350000e+00 -3.633294e-07
-1.340000e+00 -3.692569e-07
-1.330000e+00 -3.753032e-07
-1.320001e+00 -3.814683e-07
-1.310000e+00 -3.877513e-07
-1.300000e+00 -3.941512e-07
-1.290000e+00 -4.006665e-07
-1.280001e+00 -4.072949e-07
-1.270000e+00 -4.140344e-07
-1.260000e+00 -4.208823e-07
-1.250000e+00 -4.278362e-07
-1.240000e+00 -4.348933e-07
-1.230000e+00 -4.420511e-07
-1.220000e+00 -4.493074e-07
-1.210000e+00 -4.566598e-07
-1.200000e+00 -4.641069e-07
-1.190001e+00 -4.716473e-07
-1.180000e+00 -4.792803e-07