-1.200000e+01 0.000000e+00
-1.199000e+01 0.000000e+00
-1.198000e+01 0.000000e+00
-1.197000e+01 0.000000e+00
-1.196000e+01 5.462024e-27
-1.195000e+01 -2.028809e-23
-1.194000e+01 -2.213504e-22
-1.193000e+01 -1.313548e-21
-1.192000e+01 -5.617346e-21
-1.191000e+01 -1.936240e-20
-1.190000e+01 -5.708808e-20
-1.189000e+01 -1.493065e-19
-1.188000e+01 -3.548814e-19
-1.187000e+01 -7.798187e-19
-1.186000e+01 -1.604314e-18
-1.185000e+01 -3.119898e-18
-1.184000e+01 -5.778312e-18
-1.183000e+01 -1.025329e-17
-1.182000e+01 -1.751564e-17
-1.181000e+01 -2.892088e-17
-1.180000e+01 -4.630731e-17
-1.179000e+01 -7.210036e-17
-1.178000e+01 -1.094170e-16
-1.177000e+01 -1.621617e-16
-1.176000e+01 -2.351016e-16
-1.175000e+01 -3.339080e-16
-1.174000e+01 -4.651452e-16
-1.173000e+01 -6.361882e-16
-1.172000e+01 -8.550457e-16
-1.171000e+01 -1.130065e-15
-1.170000e+01 -1.469495e-15
-1.169000e+01 -1.880875e-15
-1.168000e+01 -2.370237e-15
-1.167000e+01 -2.941093e-15
-1.166000e+01 -3.593181e-15
-1.165000e+01 -4.320980e-15
-1.164000e+01 -5.111969e-15
-1.163000e+01 -5.944651e-15
-1.162000e+01 -6.786346e-15
-1.161000e+01 -7.590803e-15
-1.160000e+01 -8.295653e-15
-1.159000e+01 -8.819798e-15
-1.158000e+01 -9.060777e-15
-1.157000e+01 -8.892247e-15
-1.156000e+01 -8.161672e-15
-1.155000e+01 -6.688357e-15
-1.154000e+01 -4.261993e-15
-1.153000e+01 -6.418551e-16
-1.152000e+01 4.443154e-15
-1.151000e+01 1.129343e-14
-1.150000e+01 2.023639e-14
-1.149000e+01 3.162281e-14
-1.148000e+01 4.582153e-14
-1.147000e+01 6.321255e-14
-1.146000e+01 8.417817e-14
-1.145000e+01 1.090921e-13
-1.144000e+01 1.383068e-13
-1.143000e+01 1.721384e-13
-1.142000e+01 2.108500e-13
-1.141000e+01 2.546324e-13
-1.140000e+01 3.035843e-13
-1.139000e+01 3.576895e-13
-1.138000e+01 4.167941e-13
-1.137000e+01 4.805823e-13
-1.136000e+01 5.485524e-13
-1.135000e+01 6.199923e-13
-1.134000e+01 6.939572e-13
-1.133000e+01 7.692477e-13
-1.132000e+01 8.443913e-13
-1.131000e+01 9.176267e-13
-1.130000e+01 9.868923e-13
-1.129000e+01 1.049821e-12
-1.128000e+01 1.103737e-12
-1.127000e+01 1.145667e-12
-1.126000e+01 1.172350e-12
-1.125000e+01 1.180263e-12
-1.124000e+01 1.165653e-12
-1.123000e+01 1.124575e-12
-1.122000e+01 1.052949e-12
-1.121000e+01 9.466164e-13
-1.120000e+01 8.014181e-13
-1.119000e+01 6.132715e-13
-1.118000e+01 3.782650e-13
-1.117000e+01 9.275791e-14
-1.116000e+01 -2.465114e-13
-1.115000e+01 -6.423106e-13
-1.114000e+01 -1.096794e-12
-1.113000e+01 -1.611382e-12
-1.112000e+01 -2.186634e-12
-1.111000e+01 -2.822132e-12
-1.110000e+01 -3.516361e-12
-1.109000e+01 -4.266602e-12
-1.108000e+01 -5.068831e-12
-1.107000e+01 -5.917635e-12
-1.106000e+01 -6.806144e-12
-1.105000e+01 -7.725982e-12
-1.104000e+01 -8.667244e-12
-1.103000e+01 -9.618488e-12
-1.102000e+01 -1.056678e-11
-1.101000e+01 -1.149773e-11
-1.100000e+01 -1.239563e-11
-1.099000e+01 -1.324351e-11
-1.098000e+01 -1.402338e-11
-1.097000e+01 -1.471639e-11
-1.096000e+01 -1.530304e-11
-1.095000e+01 -1.576352e-11
-1.094000e+01 -1.607793e-11
-1.093000e+01 -1.622669e-11
-1.092000e+01 -1.619084e-11
-1.091000e+01 -1.595245e-11
-1.090000e+01 -1.549500e-11
-1.089000e+01 -1.480383e-11
-1.088000e+01 -1.386649e-11
-1.087000e+01 -1.267320e-11
-1.086000e+01 -1.121724e-11
-1.085000e+01 -9.495326e-12
-1.084000e+01 -7.507952e-12
-1.083000e+01 -5.259727e-12
-1.082000e+01 -2.759642e-12
-1.081000e+01 -2.128158e-14
-1.080000e+01 2.937014e-12
-1.079000e+01 6.092067e-12
-1.078000e+01 9.415850e-12
-1.077000e+01 1.287556e-11
-1.076000e+01 1.643380e-11
-1.075000e+01 2.004878e-11
-1.074000e+01 2.367476e-11
-1.073000e+01 2.726238e-11
-1.072000e+01 3.075931e-11
-1.071000e+01 3.411080e-11
-1.070000e+01 3.726044e-11
-1.069000e+01 4.015093e-11
-1.068000e+01 4.272500e-11
-1.067000e+01 4.492626e-11
-1.066000e+01 4.670026e-11
-1.065000e+01 4.799543e-11
-1.064000e+01 4.876419e-11
-1.063000e+01 4.896391e-11
-1.062000e+01 4.855796e-11
-1.061000e+01 4.751668e-11
-1.060000e+01 4.581831e-11
-1.059000e+01 4.344985e-11
-1.058000e+01 4.040774e-11
-1.057000e+01 3.669861e-11
-1.056000e+01 3.233965e-11
-1.055000e+01 2.735907e-11
-1.054000e+01 2.179620e-11
-1.053000e+01 1.570152e-11
-1.052000e+01 9.136491e-12
-1.051000e+01 2.173112e-12
-1.050000e+01 -5.106643e-12
-1.049000e+01 -1.261164e-11
-1.048000e+01 -2.024259e-11
-1.047000e+01 -2.789326e-11
-1.046000e+01 -3.545186e-11
-1.045000e+01 -4.280261e-11
-1.044000e+01 -4.982746e-11
-1.043000e+01 -5.640796e-11
-1.042000e+01 -6.242721e-11
-1.041000e+01 -6.777191e-11
-1.040000e+01 -7.233440e-11
-1.039000e+01 -7.601487e-11
-1.038000e+01 -7.872331e-11
-1.037000e+01 -8.038155e-11
-1.036000e+01 -8.092525e-11
-1.035000e+01 -8.030552e-11
-1.034000e+01 -7.849063e-11
-1.033000e+01 -7.546726e-11
-1.032000e+01 -7.124164e-11
-1.031000e+01 -6.584040e-11
-1.030000e+01 -5.931099e-11
-1.029000e+01 -5.172187e-11
-1.028000e+01 -4.316229e-11
-1.027000e+01 -3.374165e-11
-1.026000e+01 -2.358858e-11
-1.025000e+01 -1.284951e-11
-1.024000e+01 -1.686937e-12
-1.023000e+01 9.722685e-12
-1.022000e+01 2.119145e-11
-1.021000e+01 3.252280e-11
-1.020000e+01 4.351456e-11
-1.019000e+01 5.396232e-11
-1.018000e+01 6.366296e-11
-1.017000e+01 7.241826e-11
-1.016000e+01 8.003871e-11
-1.015000e+01 8.634723e-11
-1.014000e+01 9.118290e-11
-1.013000e+01 9.440453e-11
-1.012000e+01 9.589407e-11
-1.011000e+01 9.555976e-11
-1.010000e+01 9.333889e-11
-1.009000e+01 8.920020e-11
-1.008000e+01 8.314587e-11
-1.007000e+01 7.521282e-11
-1.006000e+01 6.547370e-11
-1.005000e+01 5.403700e-11
-1.004000e+01 4.104670e-11
-1.003000e+01 2.668118e-11
-1.002000e+01 1.115145e-11
-1.001000e+01 -5.301248e-12
-1.000000e+01 -2.240856e-11
-9.990000e+00 -3.987875e-11
-9.980000e+00 -5.740099e-11
-9.970000e+00 -7.465027e-11
-9.960000e+00 -9.129269e-11
-9.950000e+00 -1.069913e-10
-9.940001e+00 -1.214119e-10
-9.930000e+00 -1.342299e-10
-9.920000e+00 -1.451358e-10
-9.910000e+00 -1.538426e-10
-9.900000e+00 -1.600913e-10
-9.890000e+00 -1.636572e-10
-9.880000e+00 -1.643556e-10
-9.870000e+00 -1.620471e-10
-9.860001e+00 -1.566419e-10
-9.850000e+00 -1.481039e-10
-9.840000e+00 -1.364539e-10
-9.830000e+00 -1.217714e-10
-9.820000e+00 -1.041963e-10
-9.809999e+00 -8.392838e-11
-9.800000e+00 -6.122721e-11
-9.790000e+00 -3.640943e-11
-9.780000e+00 -9.845796e-12
-9.770000e+00 1.804315e-11
-9.760000e+00 4.679253e-11
-9.750000e+00 7.589959e-11
-9.740000e+00 1.048312e-10
-9.730000e+00 1.330320e-10
-9.720000e+00 1.599338e-10
-9.710000e+00 1.849651e-10
-9.700000e+00 2.075612e-10
-9.690001e+00 2.271753e-10
-9.680000e+00 2.432883e-10
-9.670000e+00 2.554203e-10
-9.660000e+00 2.631407e-10
-9.650000e+00 2.660780e-10
-9.640000e+00 2.639295e-10
-9.630000e+00 2.564697e-10
-9.620000e+00 2.435578e-10
-9.610001e+00 2.251441e-10
-9.600000e+00 2.012751e-10
-9.590000e+00 1.720970e-10
-9.580000e+00 1.378574e-10
-9.570000e+00 9.890574e-11
-9.559999e+00 5.569155e-11
-9.550000e+00 8.761150e-12
-9.540000e+00 -4.124769e-11
-9.530000e+00 -9.361284e-11
-9.520000e+00 -1.475367e-10
-9.510000e+00 -2.021566e-10
-9.500000e+00 -2.565571e-10
-9.490000e+00 -3.097836e-10
-9.480000e+00 -3.608565e-10
-9.470000e+00 -4.087878e-10
-9.460000e+00 -4.525970e-10
-9.450000e+00 -4.913284e-10
-9.440001e+00 -5.240686e-10
-9.430000e+00 -5.499634e-10
-9.420000e+00 -5.682349e-10
-9.410000e+00 -5.781977e-10
-9.400000e+00 -5.792741e-10
-9.390000e+00 -5.710085e-10
-9.380000e+00 -5.530791e-10
-9.370000e+00 -5.253093e-10
-9.360001e+00 -4.876757e-10
-9.350000e+00 -4.403148e-10
-9.340000e+00 -3.835260e-10
-9.330000e+00 -3.177740e-10
-9.320000e+00 -2.436857e-10
-9.309999e+00 -1.620471e-10
-9.300000e+00 -7.379519e-11
-9.290000e+00 1.999177e-11
-9.280000e+00 1.181070e-10
-9.270000e+00 2.192305e-10
-9.260000e+00 3.219471e-10
-9.250000e+00 4.247658e-10
-9.240000e+00 5.261423e-10
-9.230000e+00 6.245018e-10
-9.220000e+00 7.182641e-10
-9.210000e+00 8.058686e-10
-9.200000e+00 8.858011e-10
-9.190001e+00 9.566189e-10
-9.180000e+00 1.016977e-09
-9.170000e+00 1.065651e-09
-9.160000e+00 1.101564e-09
-9.150000e+00 1.123805e-09
-9.140000e+00 1.131650e-09
-9.130000e+00 1.124576e-09
-9.120000e+00 1.102280e-09
-9.110001e+00 1.064684e-09
-9.100000e+00 1.011947e-09
-9.090000e+00 9.444641e-10
-9.080000e+00 8.628697e-10
-9.070000e+00 7.680304e-10
-9.060000e+00 6.610373e-10
-9.050000e+00 5.431938e-10
-9.040000e+00 4.159986e-10
-9.030000e+00 2.811261e-10
-9.020000e+00 1.404028e-10
-9.010000e+00 -4.219469e-12
-9.000000e+00 -1.506927e-10
-8.990000e+00 -2.969045e-10
-8.980000e+00 -4.407115e-10
-8.970000e+00 -5.799742e-10
-8.960000e+00 -7.125920e-10
-8.950000e+00 -8.365394e-10
-8.940001e+00 -9.499006e-10
-8.930000e+00 -1.050903e-09
-8.920000e+00 -1.137952e-09
-8.910000e+00 -1.209655e-09
-8.900000e+00 -1.264857e-09
-8.890000e+00 -1.302657e-09
-8.880000e+00 -1.322429e-09
-8.870000e+00 -1.323842e-09
-8.860001e+00 -1.306865e-09
-8.850000e+00 -1.271774e-09
-8.840000e+00 -1.219155e-09
-8.830000e+00 -1.149897e-09
-8.820000e+00 -1.065183e-09
-8.810000e+00 -9.664719e-10
-8.800000e+00 -8.554812e-10
-8.790000e+00 -7.341594e-10
-8.780000e+00 -6.046565e-10
-8.770000e+00 -4.692898e-10
-8.760000e+00 -3.305063e-10
-8.750000e+00 -1.908415e-10
-8.740000e+00 -5.287663e-11
-8.730000e+00 8.080652e-11
-8.720000e+00 2.076711e-10
-8.710000e+00 3.252712e-10
-8.700000e+00 4.312969e-10
-8.690001e+00 5.236181e-10
-8.680000e+00 6.003261e-10
-8.670000e+00 6.597712e-10
-8.660000e+00 7.005982e-10
-8.650000e+00 7.217760e-10
-8.640000e+00 7.226224e-10
-8.630000e+00 7.028235e-10
-8.620000e+00 6.624473e-10
-8.610001e+00 6.019495e-10
-8.600000e+00 5.221744e-10
-8.590000e+00 4.243473e-10
-8.580000e+00 3.100611e-10
-8.570000e+00 1.812554e-10
-8.560000e+00 4.018990e-11
-8.550000e+00 -1.105898e-10
-8.540000e+00 -2.682905e-10
-8.530000e+00 -4.299165e-10
-8.520000e+00 -5.923180e-10
-8.510000e+00 -7.522437e-10
-8.500000e+00 -9.063969e-10
-8.490000e+00 -1.051492e-09
-8.480000e+00 -1.184316e-09
-8.470000e+00 -1.301781e-09
-8.460000e+00 -1.400990e-09
-8.450000e+00 -1.479285e-09
-8.440001e+00 -1.534305e-09
-8.430000e+00 -1.564031e-09
-8.420000e+00 -1.566833e-09
-8.410000e+00 -1.541503e-09
-8.400000e+00 -1.487291e-09
-8.390000e+00 -1.403927e-09
-8.380000e+00 -1.291638e-09
-8.370000e+00 -1.151153e-09
-8.360001e+00 -9.837056e-10
-8.350000e+00 -7.910249e-10
-8.340000e+00 -5.753152e-10
-8.330000e+00 -3.392312e-10
-8.320000e+00 -8.584233e-11
-8.310000e+00 1.814091e-10
-8.300000e+00 4.587580e-10
-8.290000e+00 7.421728e-10
-8.280000e+00 1.027417e-09
-8.270000e+00 1.310116e-09
-8.260000e+00 1.585827e-09
-8.250000e+00 1.850113e-09
-8.240000e+00 2.098613e-09
-8.230000e+00 2.327118e-09
-8.220000e+00 2.531648e-09
-8.210000e+00 2.708512e-09
-8.200000e+00 2.854385e-09
-8.190001e+00 2.966359e-09
-8.180000e+00 3.042009e-09
-8.170000e+00 3.079432e-09
-8.160000e+00 3.077293e-09
-8.150000e+00 3.034851e-09
-8.140000e+00 2.951985e-09
-8.130000e+00 2.829205e-09
-8.120000e+00 2.667651e-09
-8.110001e+00 2.469085e-09
-8.100000e+00 2.235871e-09
-8.090000e+00 1.970945e-09
-8.080000e+00 1.677776e-09
-8.070000e+00 1.360312e-09
-8.060000e+00 1.022928e-09
-8.050000e+00 6.703539e-10
-8.040000e+00 3.076074e-10
-8.030000e+00 -6.008933e-11
-8.020000e+00 -4.273897e-10
-8.010000e+00 -7.889094e-10
-8.000000e+00 -1.139313e-09
-7.990000e+00 -1.473404e-09
-7.980000e+00 -1.786205e-09
-7.970000e+00 -2.073048e-09
-7.960000e+00 -2.329647e-09
-7.950000e+00 -2.552177e-09
-7.940000e+00 -2.737334e-09
-7.930000e+00 -2.882396e-09
-7.920000e+00 -2.985271e-09
-7.910000e+00 -3.044536e-09
-7.900000e+00 -3.059462e-09
-7.890000e+00 -3.030034e-09
-7.880000e+00 -2.956948e-09
-7.870000e+00 -2.841611e-09
-7.860000e+00 -2.686114e-09
-7.850000e+00 -2.493205e-09
-7.840000e+00 -2.266242e-09
-7.830000e+00 -2.009140e-09
-7.820000e+00 -1.726311e-09
-7.810000e+00 -1.422586e-09
-7.800000e+00 -1.103138e-09
-7.790000e+00 -7.733958e-10
-7.780000e+00 -4.389525e-10
-7.770000e+00 -1.054708e-10
-7.760000e+00 2.214117e-10
-7.750000e+00 5.361796e-10
-7.740000e+00 8.335327e-10
-7.730000e+00 1.108478e-09
-7.720000e+00 1.356414e-09
-7.710000e+00 1.573212e-09
-7.700000e+00 1.755284e-09
-7.690000e+00 1.899652e-09
-7.680000e+00 2.003989e-09
-7.670000e+00 2.066672e-09
-7.660000e+00 2.086800e-09
-7.650000e+00 2.064217e-09
-7.640000e+00 1.999513e-09
-7.630000e+00 1.894011e-09
-7.620000e+00 1.749749e-09
-7.610000e+00 1.569440e-09
-7.600000e+00 1.356428e-09
-7.590000e+00 1.114628e-09
-7.580000e+00 8.484543e-10
-7.570000e+00 5.627471e-10
-7.560000e+00 2.626833e-10
-7.550000e+00 -4.631392e-11
-7.540000e+00 -3.586721e-10
-7.530000e+00 -6.687690e-10
-7.520000e+00 -9.710325e-10
-7.510000e+00 -1.260041e-09
-7.500000e+00 -1.530621e-09
-7.490000e+00 -1.777939e-09
-7.480000e+00 -1.997590e-09
-7.470000e+00 -2.185677e-09
-7.460000e+00 -2.338881e-09
-7.450000e+00 -2.454522e-09
-7.440000e+00 -2.530609e-09
-7.430000e+00 -2.565876e-09
-7.420000e+00 -2.559804e-09
-7.410000e+00 -2.512636e-09
-7.400000e+00 -2.425369e-09
-7.390000e+00 -2.299741e-09
-7.380000e+00 -2.138195e-09
-7.370000e+00 -1.943841e-09
-7.360000e+00 -1.720399e-09
-7.350000e+00 -1.472129e-09
-7.340000e+00 -1.203760e-09
-7.330000e+00 -9.203969e-10
-7.320000e+00 -6.274349e-10
-7.310000e+00 -3.304566e-10
-7.300000e+00 -3.513206e-11
-7.290000e+00 2.528857e-10
-7.280000e+00 5.280645e-10
-7.270000e+00 7.850953e-10
-7.260000e+00 1.018990e-09
-7.250000e+00 1.225175e-09
-7.240000e+00 1.399576e-09
-7.230000e+00 1.538695e-09
-7.220000e+00 1.639676e-09
-7.210000e+00 1.700363e-09
-7.200000e+00 1.719337e-09
-7.190000e+00 1.695952e-09
-7.180000e+00 1.630345e-09
-7.170000e+00 1.523438e-09
-7.160000e+00 1.376929e-09
-7.150000e+00 1.193256e-09
-7.140000e+00 9.755676e-10
-7.130000e+00 7.276590e-10
-7.120000e+00 4.539119e-10
-7.110000e+00 1.592169e-10
-7.100000e+00 -1.511128e-10
-7.090000e+00 -4.714350e-10
-7.080000e+00 -7.958781e-10
-7.070000e+00 -1.118446e-09
-7.060000e+00 -1.433123e-09
-7.050000e+00 -1.733984e-09
-7.040000e+00 -2.015298e-09
-7.030000e+00 -2.271630e-09
-7.020000e+00 -2.497941e-09
-7.010000e+00 -2.689674e-09
-7.000000e+00 -2.842840e-09
-6.990000e+00 -2.954085e-09
-6.980000e+00 -3.020755e-09
-6.970000e+00 -3.040936e-09
-6.960000e+00 -3.013494e-09
-6.950000e+00 -2.938094e-09
-6.940000e+00 -2.815201e-09
-6.930000e+00 -2.646074e-09
-6.920000e+00 -2.432746e-09
-6.910000e+00 -2.177978e-09
-6.900000e+00 -1.885216e-09
-6.890000e+00 -1.558526e-09
-6.880000e+00 -1.202518e-09
-6.870000e+00 -8.222666e-10
-6.860000e+00 -4.232153e-10
-6.850000e+00 -1.108216e-11
-6.840000e+00 4.082448e-10
-6.830000e+00 8.288115e-10
-6.820000e+00 1.244704e-09
-6.810000e+00 1.650153e-09
-6.800000e+00 2.039634e-09
-6.790000e+00 2.407963e-09
-6.780000e+00 2.750388e-09
-6.770000e+00 3.062665e-09
-6.760000e+00 3.341131e-09
-6.750000e+00 3.582764e-09
-6.740000e+00 3.785224e-09
-6.730000e+00 3.946890e-09
-6.720000e+00 4.066881e-09
-6.710000e+00 4.145054e-09
-6.700000e+00 4.182000e-09
-6.690000e+00 4.179018e-09
-6.680000e+00 4.138080e-09
-6.670000e+00 4.061778e-09
-6.660000e+00 3.953263e-09
-6.650000e+00 3.816180e-09
-6.640000e+00 3.654574e-09
-6.630000e+00 3.472812e-09
-6.620000e+00 3.275485e-09
-6.610000e+00 3.067311e-09
-6.600000e+00 2.853034e-09
-6.590000e+00 2.637325e-09
-6.580000e+00 2.424685e-09
-6.570000e+00 2.219353e-09
-6.560000e+00 2.025217e-09
-6.550000e+00 1.845735e-09
-6.540000e+00 1.683866e-09
-6.530000e+00 1.542011e-09
-6.520000e+00 1.421964e-09
-6.510000e+00 1.324880e-09
-6.500000e+00 1.251255e-09
-6.490000e+00 1.200917e-09
-6.480000e+00 1.173037e-09
-6.470000e+00 1.166152e-09
-6.460000e+00 1.178197e-09
-6.450000e+00 1.206560e-09
-6.440000e+00 1.248138e-09
-6.430000e+00 1.299416e-09
-6.420000e+00 1.356541e-09
-6.410000e+00 1.415420e-09
-6.400000e+00 1.471811e-09
-6.390000e+00 1.521427e-09
-6.380000e+00 1.560033e-09
-6.370000e+00 1.583556e-09
-6.360000e+00 1.588178e-09
-6.350000e+00 1.570437e-09
-6.340000e+00 1.527316e-09
-6.330000e+00 1.456324e-09
-6.320000e+00 1.355569e-09
-6.310000e+00 1.223819e-09
-6.300000e+00 1.060547e-09
-6.290000e+00 8.659699e-10
-6.280000e+00 6.410611e-10
-6.270000e+00 3.875593e-10
-6.260000e+00 1.079529e-10
-6.250000e+00 -1.945470e-10
-6.240000e+00 -5.160501e-10
-6.230000e+00 -8.520455e-10
-6.220000e+00 -1.197473e-09
-6.210000e+00 -1.546809e-09
-6.200000e+00 -1.894162e-09
-6.190000e+00 -2.233376e-09
-6.180000e+00 -2.558145e-09
-6.170000e+00 -2.862132e-09
-6.160000e+00 -3.139087e-09
-6.150000e+00 -3.382970e-09
-6.140000e+00 -3.588075e-09
-6.130000e+00 -3.749142e-09
-6.120000e+00 -3.861466e-09
-6.110000e+00 -3.921008e-09
-6.100000e+00 -3.924473e-09
-6.090000e+00 -3.869402e-09
-6.080000e+00 -3.754226e-09
-6.070000e+00 -3.578322e-09
-6.060000e+00 -3.342042e-09
-6.050000e+00 -3.046729e-09
-6.040000e+00 -2.694713e-09
-6.030000e+00 -2.289287e-09
-6.020000e+00 -1.834669e-09
-6.010000e+00 -1.335945e-09
-6.000000e+00 -7.989904e-10
-5.990000e+00 -2.303807e-10
-5.980000e+00 3.627128e-10
-5.970000e+00 9.726419e-10
-5.960000e+00 1.591409e-09
-5.950000e+00 2.210806e-09
-5.940000e+00 2.822553e-09
-5.930000e+00 3.418447e-09
-5.920000e+00 3.990507e-09
-5.910000e+00 4.531121e-09
-5.900000e+00 5.033181e-09
-5.890000e+00 5.490220e-09
-5.880000e+00 5.896533e-09
-5.870000e+00 6.247288e-09
-5.860000e+00 6.538619e-09
-5.850000e+00 6.767708e-09
-5.840000e+00 6.932845e-09
-5.830000e+00 7.033475e-09
-5.820000e+00 7.070211e-09
-5.810000e+00 7.044841e-09
-5.800000e+00 6.960308e-09
-5.790000e+00 6.820666e-09
-5.780000e+00 6.631017e-09
-5.770000e+00 6.397432e-09
-5.760000e+00 6.126852e-09
-5.750000e+00 5.826967e-09
-5.740000e+00 5.506088e-09
-5.730000e+00 5.172999e-09
-5.720000e+00 4.836810e-09
-5.710000e+00 4.506786e-09
-5.700000e+00 4.192188e-09
-5.690000e+00 3.902104e-09
-5.680000e+00 3.645283e-09
-5.670000e+00 3.429969e-09
-5.660000e+00 3.263753e-09
-5.650000e+00 3.153425e-09
-5.640000e+00 3.104845e-09
-5.630000e+00 3.122829e-09
-5.620000e+00 3.211046e-09
-5.610000e+00 3.371947e-09
-5.600000e+00 3.606701e-09
-5.590000e+00 3.915167e-09
-5.580000e+00 4.295878e-09
-5.570000e+00 4.746056e-09
-5.560000e+00 5.261646e-09
-5.550000e+00 5.837376e-09
-5.540000e+00 6.466841e-09
-5.530000e+00 7.142601e-09
-5.520000e+00 7.856304e-09
-5.510000e+00 8.598829e-09
-5.500000e+00 9.360434e-09
-5.490000e+00 1.013093e-08
-5.480000e+00 1.089984e-08
-5.470000e+00 1.165662e-08
-5.460000e+00 1.239079e-08
-5.450000e+00 1.309215e-08
-5.440000e+00 1.375100e-08
-5.430000e+00 1.435822e-08
-5.420000e+00 1.490553e-08
-5.410000e+00 1.538560e-08
-5.400000e+00 1.579217e-08
-5.390000e+00 1.612023e-08
-5.380000e+00 1.636606e-08
-5.370000e+00 1.652732e-08
-5.360000e+00 1.660314e-08
-5.350000e+00 1.659410e-08
-5.340000e+00 1.650227e-08
-5.330000e+00 1.633117e-08
-5.320000e+00 1.608572e-08
-5.310000e+00 1.577219e-08
-5.300000e+00 1.539807e-08
-5.290000e+00 1.497198e-08
-5.280000e+00 1.450353e-08
-5.270000e+00 1.400317e-08
-5.260000e+00 1.348199e-08
-5.250000e+00 1.295156e-08
-5.240000e+00 1.242376e-08
-5.230000e+00 1.191054e-08
-5.220000e+00 1.142376e-08
-5.210000e+00 1.097494e-08
-5.200000e+00 1.057515e-08
-5.190000e+00 1.023474e-08
-5.180000e+00 9.963228e-09
-5.170000e+00 9.769090e-09
-5.160000e+00 9.659662e-09
-5.150000e+00 9.640990e-09
-5.140000e+00 9.717739e-09
-5.130000e+00 9.893112e-09
-5.120000e+00 1.016880e-08
-5.110000e+00 1.054494e-08
-5.100000e+00 1.102015e-08
-5.090000e+00 1.159152e-08
-5.080000e+00 1.225466e-08
-5.070000e+00 1.300381e-08
-5.060000e+00 1.383192e-08
-5.050000e+00 1.473077e-08
-5.040000e+00 1.569110e-08
-5.030000e+00 1.670281e-08
-5.020000e+00 1.775510e-08
-5.010000e+00 1.883665e-08
-5.000000e+00 1.993584e-08
-4.990000e+00 2.104093e-08
-4.980000e+00 2.214026e-08
-4.970000e+00 2.322246e-08
-4.960000e+00 2.427663e-08
-4.950000e+00 2.529253e-08
-4.940000e+00 2.626076e-08
-4.930000e+00 2.717289e-08
-4.920000e+00 2.802163e-08
-4.910000e+00 2.880092e-08
-4.900000e+00 2.950607e-08
-4.890000e+00 3.013378e-08
-4.880000e+00 3.068223e-08
-4.870000e+00 3.115110e-08
-4.860000e+00 3.154155e-08
-4.850000e+00 3.185619e-08
-4.840000e+00 3.209905e-08
-4.830000e+00 3.227549e-08
-4.820000e+00 3.239210e-08
-4.810000e+00 3.245660e-08
-4.800000e+00 3.247765e-08
-4.790000e+00 3.246476e-08
-4.780000e+00 3.242808e-08
-4.770000e+00 3.237822e-08
-4.760000e+00 3.232610e-08
-4.750000e+00 3.228273e-08
-4.740000e+00 3.225903e-08
-4.730000e+00 3.226565e-08
-4.720000e+00 3.231278e-08
-4.710000e+00 3.240999e-08
-4.700000e+00 3.256604e-08
-4.690000e+00 3.278879e-08
-4.680000e+00 3.308504e-08
-4.670000e+00 3.346041e-08
-4.660000e+00 3.391929e-08
-4.650000e+00 3.446475e-08
-4.640000e+00 3.509852e-08
-4.630000e+00 3.582095e-08
-4.620000e+00 3.663105e-08
-4.610000e+00 3.752650e-08
-4.600000e+00 3.850371e-08
-4.590000e+00 3.955789e-08
-4.580000e+00 4.068318e-08
-4.570000e+00 4.187273e-08
-4.560000e+00 4.311885e-08
-4.550000e+00 4.441316e-08
-4.540000e+00 4.574673e-08
-4.530000e+00 4.711028e-08
-4.520000e+00 4.849430e-08
-4.510000e+00 4.988928e-08
-4.500000e+00 5.128584e-08
-4.490000e+00 5.267493e-08
-4.480000e+00 5.404795e-08
-4.470000e+00 5.539696e-08
-4.460000e+00 5.671476e-08
-4.450000e+00 5.799506e-08
-4.440000e+00 5.923257e-08
-4.430000e+00 6.042308e-08
-4.420000e+00 6.156354e-08
-4.410000e+00 6.265212e-08
-4.400000e+00 6.368823e-08
-4.390000e+00 6.467250e-08
-4.380000e+00 6.560678e-08
-4.370000e+00 6.649415e-08
-4.360000e+00 6.733875e-08
-4.350000e+00 6.814582e-08
-4.340000e+00 6.892153e-08
-4.330000e+00 6.967289e-08
-4.320000e+00 7.040762e-08
-4.310000e+00 7.113406e-08
-4.300000e+00 7.186093e-08
-4.290000e+00 7.259728e-08
-4.280000e+00 7.335226e-08
-4.270000e+00 7.413502e-08
-4.260000e+00 7.495451e-08
-4.250000e+00 7.581939e-08
-4.240000e+00 7.673782e-08
-4.230000e+00 7.771740e-08
-4.220000e+00 7.876499e-08
-4.210000e+00 7.988668e-08
-4.200000e+00 8.108758e-08
-4.190000e+00 8.237190e-08
-4.180000e+00 8.374278e-08
-4.170000e+00 8.520232e-08
-4.160000e+00 8.675151e-08
-4.150000e+00 8.839029e-08
-4.140000e+00 9.011755e-08
-4.130000e+00 9.193116e-08
-4.120000e+00 9.382802e-08
-4.110000e+00 9.580418e-08
-4.100000e+00 9.785488e-08
-4.090000e+00 9.997466e-08
-4.080000e+00 1.021575e-07
-4.070000e+00 1.043968e-07
-4.060000e+00 1.066859e-07
-4.050000e+00 1.090175e-07
-4.040000e+00 1.113847e-07
-4.030000e+00 1.137802e-07
-4.020000e+00 1.161972e-07
-4.010000e+00 1.186290e-07
-4.000000e+00 1.210694e-07
-3.990000e+00 1.235126e-07
-3.980000e+00 1.259536e-07
-3.970000e+00 1.283877e-07
-3.960000e+00 1.308113e-07
-3.950000e+00 1.332213e-07
-3.940001e+00 1.356157e-07
-3.930000e+00 1.379932e-07
-3.920000e+00 1.403531e-07
-3.910000e+00 1.426960e-07
-3.900001e+00 1.450228e-07
-3.890000e+00 1.473356e-07
-3.880000e+00 1.496368e-07
-3.870000e+00 1.519296e-07
-3.860001e+00 1.542179e-07
-3.850000e+00 1.565057e-07
-3.840000e+00 1.587977e-07
-3.830000e+00 1.610988e-07
-3.820001e+00 1.634140e-07
-3.810000e+00 1.657483e-07
-3.800000e+00 1.681068e-07
-3.790000e+00 1.704945e-07
-3.780000e+00 1.729161e-07
-3.770000e+00 1.753760e-07
-3.760000e+00 1.778784e-07
-3.750000e+00 1.804267e-07
-3.740000e+00 1.830241e-07
-3.730000e+00 1.856733e-07
-3.720000e+00 1.883762e-07
-3.710000e+00 1.911343e-07
-3.700000e+00 1.939484e-07
-3.690001e+00 1.968187e-07
-3.680000e+00 1.997450e-07
-3.670000e+00 2.027264e-07
-3.660000e+00 2.057615e-07
-3.650001e+00 2.088487e-07
-3.640000e+00 2.119857e-07
-3.630000e+00 2.151702e-07
-3.620000e+00 2.183994e-07
-3.610001e+00 2.216705e-07
-3.600000e+00 2.249808e-07
-3.590000e+00 2.283274e-07
-3.580000e+00 2.317074e-07
-3.570001e+00 2.351184e-07
-3.560000e+00 2.385581e-07
-3.550000e+00 2.420246e-07
-3.540000e+00 2.455164e-07
-3.530000e+00 2.490322e-07
-3.520000e+00 2.525718e-07
-3.510000e+00 2.561349e-07
-3.500000e+00 2.597223e-07
-3.490000e+00 2.633349e-07
-3.480000e+00 2.669747e-07
-3.470000e+00 2.706439e-07
-3.460000e+00 2.743454e-07
-3.450000e+00 2.780828e-07
-3.440001e+00 2.818598e-07
-3.430000e+00 2.856810e-07
-3.420000e+00 2.895511e-07
-3.410000e+00 2.934752e-07
-3.400001e+00 2.974586e-07
-3.390000e+00 3.015070e-07
-3.380000e+00 3.056259e-07
-3.370000e+00 3.098210e-07
-3.360001e+00 3.140979e-07
-3.350000e+00 3.184621e-07
-3.340000e+00 3.229187e-07
-3.330000e+00 3.274725e-07
-3.320001e+00 3.321284e-07
-3.310000e+00 3.368903e-07
-3.300000e+00 3.417620e-07
-3.290000e+00 3.467466e-07
-3.280000e+00 3.518467e-07
-3.270000e+00 3.570643e-07
-3.260000e+00 3.624010e-07
-3.250000e+00 3.678575e-07
-3.240000e+00 3.734342e-07
-3.230000e+00 3.791307e-07
-3.220000e+00 3.849462e-07
-3.210000e+00 3.908794e-07
-3.200000e+00 3.969284e-07
-3.190001e+00 4.030912e-07
-3.180000e+00 4.093651e-07
-3.170000e+00 4.157472e-07
-3.160000e+00 4.222345e-07
-3.150001e+00 4.288238e-07
-3.140000e+00 4.355116e-07
-3.130000e+00 4.422947e-07
-3.120000e+00 4.491697e-07
-3.110001e+00 4.561334e-07
-3.100000e+00 4.631829e-07
-3.090000e+00 4.703152e-07
-3.080000e+00 4.775279e-07
-3.070001e+00 4.848188e-07
-3.060000e+00 4.921858e-07
-3.050000e+00 4.996276e-07
-3.040000e+00 5.071431e-07
-3.030000e+00 5.147314e-07
-3.020000e+00 5.223923e-07
-3.010000e+00 5.301259e-07
-3.000000e+00 5.379325e-07
-2.990000e+00 5.458128e-07
-2.980000e+00 5.537681e-07
-2.970000e+00 5.617997e-07
-2.960000e+00 5.699090e-07
-2.950000e+00 5.780979e-07
-2.940001e+00 5.863682e-07
-2.930000e+00 5.947219e-07
-2.920000e+00 6.031611e-07
-2.910000e+00 6.116877e-07
-2.900001e+00 6.203034e-07
-2.890000e+00 6.290101e-07
-2.880000e+00 6.378095e-07
-2.870000e+00 6.467029e-07
-2.860001e+00 6.556913e-07
-2.850000e+00 6.647758e-07
-2.840000e+00 6.739569e-07
-2.830000e+00 6.832349e-07
-2.820001e+00 6.926098e-07
-2.810000e+00 7.020813e-07
-2.800000e+00 7.116488e-07
-2.790000e+00 7.213114e-07
-2.780000e+00 7.310683e-07
-2.770000e+00 7.409180e-07
-2.760000e+00 7.508592e-07
-2.750000e+00 7.608903e-07
-2.740000e+00 7.710098e-07
-2.730000e+00 7.812162e-07
-2.720000e+00 7.915079e-07
-2.710000e+00 8.018838e-07
-2.700000e+00 8.123426e-07
-2.690001e+00 8.228835e-07
-2.680000e+00 8.335059e-07
-2.670000e+00 8.442096e-07
-2.660000e+00 8.549949e-07
-2.650001e+00 8.658625e-07
-2.640000e+00 8.768137e-07
-2.630000e+00 8.878502e-07
-2.620000e+00 8.989743e-07
-2.610001e+00 9.101891e-07
-2.600000e+00 9.214979e-07
-2.590000e+00 9.329050e-07
-2.580000e+00 9.444149e-07
-2.570001e+00 9.560330e-07
-2.560000e+00 9.677649e-07
-2.550000e+00 9.796171e-07
-2.540000e+00 9.915957e-07
-2.530001e+00 1.003708e-06
-2.520000e+00 1.015962e-06
-2.510000e+00 1.028363e-06
-2.500000e+00 1.040922e-06
-2.490000e+00 1.053643e-06
-2.480000e+00 1.066537e-06
-2.470000e+00 1.079609e-06
-2.460000e+00 1.092869e-06
-2.450000e+00 1.106321e-06
-2.440001e+00 1.119974e-06
-2.430000e+00 1.133833e-06
-2.420000e+00 1.147905e-06
-2.410000e+00 1.162194e-06
-2.400001e+00 1.176706e-06
-2.390000e+00 1.191443e-06
-2.380000e+00 1.206409e-06
-2.370000e+00 1.221606e-06
-2.360001e+00 1.237036e-06
-2.350000e+00 1.252700e-06
-2.340000e+00 1.268596e-06
-2.330000e+00 1.284726e-06
-2.320001e+00 1.301086e-06
-2.310000e+00 1.317675e-06
-2.300000e+00 1.334489e-06
-2.290000e+00 1.351524e-06
-2.280001e+00 1.368777e-06
-2.270000e+00 1.386243e-06
-2.260000e+00 1.403916e-06
-2.250000e+00 1.421791e-06
-2.240000e+00 1.439862e-06
-2.230000e+00 1.458123e-06
-2.220000e+00 1.476568e-06
-2.210000e+00 1.495191e-06
-2.200000e+00 1.513987e-06
-2.190001e+00 1.532949e-06
-2.180000e+00 1.552073e-06
-2.170000e+00 1.571353e-06
-2.160000e+00 1.590786e-06
-2.150001e+00 1.610366e-06
-2.140000e+00 1.630091e-06
-2.130000e+00 1.649959e-06
-2.120000e+00 1.669967e-06
-2.110001e+00 1.690114e-06
-2.100000e+00 1.710399e-06
-2.090000e+00 1.730824e-06
-2.080000e+00 1.751388e-06
-2.070001e+00 1.772094e-06
-2.060000e+00 1.792944e-06
-2.050000e+00 1.813942e-06
-2.040000e+00 1.835091e-06
-2.030001e+00 1.856396e-06
-2.020000e+00 1.877861e-06
-2.010000e+00 1.899493e-06
-2.000000e+00 1.921296e-06
-1.990000e+00 1.943278e-06
-1.980000e+00 1.965444e-06
-1.970000e+00 1.987801e-06
-1.960000e+00 2.010356e-06
-1.950000e+00 2.033114e-06
-1.940001e+00 2.056083e-06
-1.930000e+00 2.079269e-06
-1.920000e+00 2.102676e-06
-1.910000e+00 2.126312e-06
-1.900001e+00 2.150182e-06
-1.890000e+00 2.174289e-06
-1.880000e+00 2.198639e-06
-1.870000e+00 2.223235e-06
-1.860001e+00 2.248079e-06
-1.850000e+00 2.273176e-06
-1.840000e+00 2.298525e-06
-1.830000e+00 2.324130e-06
-1.820001e+00 2.349989e-06
-1.810000e+00 2.376104e-06
-1.800000e+00 2.402475e-06
-1.790000e+00 2.429100e-06
-1.780001e+00 2.455977e-06
-1.770000e+00 2.483106e-06
-1.760000e+00 2.510485e-06
-1.750000e+00 2.538111e-06
-1.740000e+00 2.565983e-06
-1.730000e+00 2.594096e-06
-1.720000e+00 2.622451e-06
-1.710000e+00 2.651043e-06
-1.700000e+00 2.679871e-06
-1.690001e+00 2.708934e-06
-1.680000e+00 2.738230e-06
-1.670000e+00 2.767757e-06
-1.660000e+00 2.797516e-06
-1.650001e+00 2.827506e-06
-1.640000e+00 2.857727e-06
-1.630000e+00 2.888182e-06
-1.620000e+00 2.918871e-06
-1.610001e+00 2.949798e-06
-1.600000e+00 2.980966e-06
-1.590000e+00 3.012377e-06
-1.580000e+00 3.044038e-06
-1.570001e+00 3.075952e-06
-1.560000e+00 3.108126e-06
-1.550000e+00 3.140565e-06
-1.540000e+00 3.173276e-06
-1.530001e+00 3.206266e-06
-1.520000e+00 3.239542e-06
-1.510000e+00 3.273112e-06
-1.500000e+00 3.306982e-06
-1.490000e+00 3.341160e-06
-1.480000e+00 3.375655e-06
-1.470000e+00 3.410471e-06
-1.460000e+00 3.445617e-06
-1.450000e+00 3.481099e-06
-1.440001e+00 3.516921e-06
-1.430000e+00 3.553090e-06
-1.420000e+00 3.589609e-06
-1.410000e+00 3.626482e-06
-1.400001e+00 3.663712e-06
-1.390000e+00 3.701301e-06
-1.380000e+00 3.739248e-06
-1.370000e+00 3.777554e-06
-1.360001e+00 3.816217e-06
-1.350000e+00 3.855236e-06
-1.340000e+00 3.894607e-06
-1.330000e+00 3.934325e-06
-1.320001e+00 3.974385e-06
-1.310000e+00 4.014781e-06
-1.300000e+00 4.055506e-06
-1.290000e+00 4.096554e-06
-1.280001e+00 4.137914e-06
-1.270000e+00 4.179580e-06
-1.260000e+00 4.221541e-06
-1.250000e+00 4.263788e-06
-1.240000e+00 4.306313e-06
-1.230000e+00 4.349106e-06
-1.220000e+00 4.392158e-06
-1.210000e+00 4.435461e-06
-1.200000e+00 4.479004e-06
-1.190001e+00 4.522783e-06
-1.180000e+00 4.566790e-06
-1.170000e+00 4.611018e-06
-1.160000e+00 4.655462e-06
-1.150001e+00 4.700119e-06
-1.140000e+00 4.744986e-06
-1.130000e+00 4.790060e-06
-1.120000e+00 4.835342e-06
-1.110001e+00 4.880833e-06
-1.100000e+00 4.926534e-06
-1.090000e+00 4.972448e-06
-1.080000e+00 5.018580e-06
-1.070001e+00 5.064936e-06
-1.060000e+00 5.111524e-06
-1.050000e+00 5.158349e-06
-1.040000e+00 5.205421e-06
-1.030001e+00 5.252749e-06
-1.020000e+00 5.300343e-06