-1.200000e+01 0.000000e+00
-1.199000e+01 0.000000e+00
-1.198000e+01 0.000000e+00
-1.197000e+01 0.000000e+00
-1.196000e+01 4.538765e-29
-1.195000e+01 -1.256074e-25
-1.194000e+01 -1.355144e-24
-1.193000e+01 -7.933436e-24
-1.192000e+01 -3.339687e-23
-1.191000e+01 -1.130652e-22
-1.190000e+01 -3.266746e-22
-1.189000e+01 -8.352421e-22
-1.188000e+01 -1.935945e-21
-1.187000e+01 -4.137438e-21
-1.186000e+01 -8.255338e-21
-1.185000e+01 -1.552342e-20
-1.184000e+01 -2.771032e-20
-1.183000e+01 -4.722450e-20
-1.182000e+01 -7.718207e-20
-1.181000e+01 -1.214039e-19
-1.180000e+01 -1.843006e-19
-1.179000e+01 -2.705972e-19
-1.178000e+01 -3.848478e-19
-1.177000e+01 -5.306891e-19
-1.176000e+01 -7.097897e-19
-1.175000e+01 -9.204643e-19
-1.174000e+01 -1.155942e-18
-1.173000e+01 -1.402307e-18
-1.172000e+01 -1.636160e-18
-1.171000e+01 -1.822096e-18
-1.170000e+01 -1.910149e-18
-1.169000e+01 -1.833366e-18
-1.168000e+01 -1.505779e-18
-1.167000e+01 -8.210442e-19
-1.166000e+01 3.479412e-19
-1.165000e+01 2.148088e-18
-1.164000e+01 4.743489e-18
-1.163000e+01 8.310792e-18
-1.162000e+01 1.303228e-17
-1.161000e+01 1.908642e-17
-1.160000e+01 2.663584e-17
-1.159000e+01 3.581262e-17
-1.158000e+01 4.670121e-17
-1.157000e+01 5.931927e-17
-1.156000e+01 7.359695e-17
-1.155000e+01 8.935547e-17
-1.154000e+01 1.062860e-16
-1.153000e+01 1.239300e-16
-1.152000e+01 1.416622e-16
-1.151000e+01 1.586781e-16
-1.150000e+01 1.739873e-16
-1.149000e+01 1.864143e-16
-1.148000e+01 1.946087e-16
-1.147000e+01 1.970648e-16
-1.146000e+01 1.921539e-16
-1.145000e+01 1.781684e-16
-1.144000e+01 1.533781e-16
-1.143000e+01 1.160996e-16
-1.142000e+01 6.477641e-17
-1.141000e+01 -1.930269e-18
-1.140000e+01 -8.504366e-17
-1.139000e+01 -1.851685e-16
-1.138000e+01 -3.023871e-16
-1.137000e+01 -4.361592e-16
-1.136000e+01 -5.852292e-16
-1.135000e+01 -7.475476e-16
-1.134000e+01 -9.202106e-16
-1.133000e+01 -1.099425e-15
-1.132000e+01 -1.280500e-15
-1.131000e+01 -1.457879e-15
-1.130000e+01 -1.625203e-15
-1.129000e+01 -1.775417e-15
-1.128000e+01 -1.900923e-15
-1.127000e+01 -1.993770e-15
-1.126000e+01 -2.045889e-15
-1.125000e+01 -2.049363e-15
-1.124000e+01 -1.996730e-15
-1.123000e+01 -1.881310e-15
-1.122000e+01 -1.697543e-15
-1.121000e+01 -1.441339e-15
-1.120000e+01 -1.110408e-15
-1.119000e+01 -7.045740e-16
-1.118000e+01 -2.260509e-16
-1.117000e+01 3.203398e-16
-1.116000e+01 9.270126e-16
-1.115000e+01 1.583545e-15
-1.114000e+01 2.276697e-15
-1.113000e+01 2.990529e-15
-1.112000e+01 3.706636e-15
-1.111000e+01 4.404483e-15
-1.110000e+01 5.061865e-15
-1.109000e+01 5.655456e-15
-1.108000e+01 6.161473e-15
-1.107000e+01 6.556409e-15
-1.106000e+01 6.817841e-15
-1.105000e+01 6.925265e-15
-1.104000e+01 6.860964e-15
-1.103000e+01 6.610849e-15
-1.102000e+01 6.165259e-15
-1.101000e+01 5.519680e-15
-1.100000e+01 4.675356e-15
-1.099000e+01 3.639755e-15
-1.098000e+01 2.426862e-15
-1.097000e+01 1.057281e-15
-1.096000e+01 -4.418904e-16
-1.095000e+01 -2.037410e-15
-1.094000e+01 -3.690478e-15
-1.093000e+01 -5.357559e-15
-1.092000e+01 -6.991436e-15
-1.091000e+01 -8.542461e-15
-1.090000e+01 -9.959992e-15
-1.089000e+01 -1.119396e-14
-1.088000e+01 -1.219654e-14
-1.087000e+01 -1.292387e-14
-1.086000e+01 -1.333774e-14
-1.085000e+01 -1.340721e-14
-1.084000e+01 -1.311013e-14
-1.083000e+01 -1.243440e-14
-1.082000e+01 -1.137900e-14
-1.081000e+01 -9.954747e-15
-1.080000e+01 -8.184633e-15
-1.079000e+01 -6.103812e-15
-1.078000e+01 -3.759156e-15
-1.077000e+01 -1.208392e-15
-1.076000e+01 1.481189e-15
-1.075000e+01 4.234424e-15
-1.074000e+01 6.970328e-15
-1.073000e+01 9.604474e-15
-1.072000e+01 1.205161e-14
-1.071000e+01 1.422843e-14
-1.070000e+01 1.605649e-14
-1.069000e+01 1.746498e-14
-1.068000e+01 1.839355e-14
-1.067000e+01 1.879473e-14
-1.066000e+01 1.863615e-14
-1.065000e+01 1.790228e-14
-1.064000e+01 1.659565e-14
-1.063000e+01 1.473757e-14
-1.062000e+01 1.236812e-14
-1.061000e+01 9.545499e-15
-1.060000e+01 6.344782e-15
-1.059000e+01 2.855893e-15
-1.058000e+01 -8.189546e-16
-1.057000e+01 -4.568401e-15
-1.056000e+01 -8.275537e-15
-1.055000e+01 -1.182186e-14
-1.054000e+01 -1.509143e-14
-1.053000e+01 -1.797512e-14
-1.052000e+01 -2.037475e-14
-1.051000e+01 -2.220703e-14
-1.050000e+01 -2.340700e-14
-1.049000e+01 -2.393103e-14
-1.048000e+01 -2.375899e-14
-1.047000e+01 -2.289574e-14
-1.046000e+01 -2.137158e-14
-1.045000e+01 -1.924181e-14
-1.044000e+01 -1.658525e-14
-1.043000e+01 -1.350178e-14
-1.042000e+01 -1.010895e-14
-1.041000e+01 -6.537686e-15
-1.040000e+01 -2.927327e-15
-1.039000e+01 5.799283e-16
-1.038000e+01 3.844944e-15
-1.037000e+01 6.737714e-15
-1.036000e+01 9.143344e-15
-1.035000e+01 1.096770e-14
-1.034000e+01 1.214244e-14
-1.033000e+01 1.262931e-14
-1.032000e+01 1.242329e-14
-1.031000e+01 1.155455e-14
-1.030000e+01 1.008907e-14
-1.029000e+01 8.127649e-15
-1.028000e+01 5.803511e-15
-1.027000e+01 3.278224e-15
-1.026000e+01 7.362387e-16
-1.025000e+01 -1.621970e-15
-1.024000e+01 -3.587904e-15
-1.023000e+01 -4.953956e-15
-1.022000e+01 -5.522948e-15
-1.021000e+01 -5.117924e-15
-1.020000e+01 -3.591843e-15
-1.019000e+01 -8.367782e-16
-1.018000e+01 3.207797e-15
-1.017000e+01 8.548009e-15
-1.016000e+01 1.513025e-14
-1.015000e+01 2.283781e-14
-1.014000e+01 3.148982e-14
-1.013000e+01 4.084258e-14
-1.012000e+01 5.059353e-14
-1.011000e+01 6.038782e-14
-1.010000e+01 6.982740e-14
-1.009000e+01 7.848252e-14
-1.008000e+01 8.590534e-14
-1.007000e+01 9.164527e-14
-1.006000e+01 9.526559e-14
-1.005000e+01 9.636096e-14
-1.004000e+01 9.457491e-14
-1.003000e+01 8.961703e-14
-1.002000e+01 8.127898e-14
-1.001000e+01 6.944871e-14
-1.000000e+01 5.412238e-14
-9.990000e+00 3.541311e-14
-9.980000e+00 1.355635e-14
-9.970000e+00 -1.108868e-14
-9.960000e+00 -3.804182e-14
-9.950000e+00 -6.670918e-14
-9.940001e+00 -9.639473e-14
-9.930000e+00 -1.263162e-13
-9.920000e+00 -1.556249e-13
-9.910000e+00 -1.834292e-13
-9.900000e+00 -2.088208e-13
-9.890000e+00 -2.309032e-13
-9.880000e+00 -2.488214e-13
-9.870000e+00 -2.617925e-13
-9.860001e+00 -2.691346e-13
-9.850000e+00 -2.702953e-13
-9.840000e+00 -2.648763e-13
-9.830000e+00 -2.526551e-13
-9.820000e+00 -2.336015e-13
-9.809999e+00 -2.078890e-13
-9.800000e+00 -1.758995e-13
-9.790000e+00 -1.382222e-13
-9.780000e+00 -9.564506e-14
-9.770000e+00 -4.913900e-14
-9.760000e+00 1.638382e-16
-9.750000e+00 5.099884e-14
-9.740000e+00 1.020031e-13
-9.730000e+00 1.517546e-13
-9.720000e+00 1.988146e-13
-9.710000e+00 2.417732e-13
-9.700000e+00 2.792953e-13
-9.690001e+00 3.101665e-13
-9.680000e+00 3.333366e-13
-9.670000e+00 3.479596e-13
-9.660000e+00 3.534291e-13
-9.650000e+00 3.494060e-13
-9.640000e+00 3.358399e-13
-9.630000e+00 3.129810e-13
-9.620000e+00 2.813821e-13
-9.610001e+00 2.418917e-13
-9.600000e+00 1.956360e-13
-9.590000e+00 1.439915e-13
-9.580000e+00 8.854832e-14
-9.570000e+00 3.106417e-14
-9.559999e+00 -2.658772e-14
-9.550000e+00 -8.247751e-14
-9.540000e+00 -1.346811e-13
-9.530000e+00 -1.813451e-13
-9.520000e+00 -2.207507e-13
-9.510000e+00 -2.513771e-13
-9.500000e+00 -2.719586e-13
-9.490000e+00 -2.815365e-13
-9.480000e+00 -2.795017e-13
-9.470000e+00 -2.656280e-13
-9.460000e+00 -2.400920e-13
-9.450000e+00 -2.034820e-13
-9.440001e+00 -1.567919e-13
-9.430000e+00 -1.014018e-13
-9.420000e+00 -3.904471e-14
-9.410000e+00 2.823977e-14
-9.400000e+00 9.816402e-14
-9.390000e+00 1.682611e-13
-9.380000e+00 2.359620e-13
-9.370000e+00 2.986796e-13
-9.360001e+00 3.538948e-13
-9.350000e+00 3.992453e-13
-9.340000e+00 4.326106e-13
-9.330000e+00 4.521928e-13
-9.320000e+00 4.565885e-13
-9.309999e+00 4.448511e-13
-9.300000e+00 4.165389e-13
-9.290000e+00 3.717487e-13
-9.280000e+00 3.111319e-13
-9.270000e+00 2.358931e-13
-9.260000e+00 1.477702e-13
-9.250000e+00 4.899614e-14
-9.240000e+00 -5.775765e-14
-9.230000e+00 -1.694533e-13
-9.220000e+00 -2.827737e-13
-9.210000e+00 -3.942214e-13
-9.200000e+00 -5.002268e-13
-9.190001e+00 -5.972619e-13
-9.180000e+00 -6.819567e-13
-9.170000e+00 -7.512134e-13
-9.160000e+00 -8.023157e-13
-9.150000e+00 -8.330285e-13
-9.140000e+00 -8.416848e-13
-9.130000e+00 -8.272577e-13
-9.120000e+00 -7.894115e-13
-9.110001e+00 -7.285337e-13
-9.100000e+00 -6.457438e-13
-9.090000e+00 -5.428781e-13
-9.080000e+00 -4.224514e-13
-9.070000e+00 -2.875954e-13
-9.060000e+00 -1.419761e-13
-9.050000e+00 1.030893e-14
-9.040000e+00 1.648493e-13
-9.030000e+00 3.170536e-13
-9.020000e+00 4.622899e-13
-9.010000e+00 5.960322e-13
-9.000000e+00 7.140041e-13
-8.990000e+00 8.123212e-13
-8.980000e+00 8.876211e-13
-8.970000e+00 9.371809e-13
-8.960000e+00 9.590161e-13
-8.950000e+00 9.519586e-13
-8.940001e+00 9.157089e-13
-8.930000e+00 8.508629e-13
-8.920000e+00 7.589094e-13
-8.910000e+00 6.421993e-13
-8.900000e+00 5.038876e-13
-8.890000e+00 3.478473e-13
-8.880000e+00 1.785603e-13
-8.870000e+00 9.860387e-16
-8.860001e+00 -1.795864e-13
-8.850000e+00 -3.576992e-13
-8.840000e+00 -5.278938e-13
-8.830000e+00 -6.848823e-13
-8.820000e+00 -8.237143e-13
-8.810000e+00 -9.399360e-13
-8.800000e+00 -1.029734e-12
-8.790000e+00 -1.090064e-12
-8.780000e+00 -1.118747e-12
-8.770000e+00 -1.114552e-12
-8.760000e+00 -1.077239e-12
-8.750000e+00 -1.007571e-12
-8.740000e+00 -9.073034e-13
-8.730000e+00 -7.791263e-13
-8.720000e+00 -6.265907e-13
-8.710000e+00 -4.539983e-13
-8.700000e+00 -2.662686e-13
-8.690001e+00 -6.878585e-14
-8.680000e+00 1.327703e-13
-8.670000e+00 3.326038e-13
-8.660000e+00 5.249859e-13
-8.650000e+00 7.044366e-13
-8.640000e+00 8.658986e-13
-8.630000e+00 1.004898e-12
-8.620000e+00 1.117683e-12
-8.610001e+00 1.201347e-12
-8.600000e+00 1.253910e-12
-8.590000e+00 1.274383e-12
-8.580000e+00 1.262792e-12
-8.570000e+00 1.220168e-12
-8.560000e+00 1.148507e-12
-8.550000e+00 1.050693e-12
-8.540000e+00 9.303976e-13
-8.530000e+00 7.919463e-13
-8.520000e+00 6.401680e-13
-8.510000e+00 4.802260e-13
-8.500000e+00 3.174380e-13
-8.490000e+00 1.570933e-13
-8.480000e+00 4.269707e-15
-8.470000e+00 -1.363394e-13
-8.460000e+00 -2.605852e-13
-8.450000e+00 -3.650027e-13
-8.440001e+00 -4.469254e-13
-8.430000e+00 -5.045718e-13
-8.420000e+00 -5.370984e-13
-8.410000e+00 -5.446214e-13
-8.400000e+00 -5.282006e-13
-8.390000e+00 -4.897926e-13
-8.380000e+00 -4.321688e-13
-8.370000e+00 -3.588060e-13
-8.360001e+00 -2.737503e-13
-8.350000e+00 -1.814606e-13
-8.340000e+00 -8.663713e-14
-8.330000e+00 5.959089e-15
-8.320000e+00 9.168899e-14
-8.310000e+00 1.662141e-13
-8.300000e+00 2.256644e-13
-8.290000e+00 2.667893e-13
-8.280000e+00 2.870859e-13
-8.270000e+00 2.849005e-13
-8.260000e+00 2.594987e-13
-8.250000e+00 2.111021e-13
-8.240000e+00 1.408892e-13
-8.230000e+00 5.096158e-14
-8.220000e+00 -5.572469e-14
-8.210000e+00 -1.754598e-13
-8.200000e+00 -3.039094e-13
-8.190001e+00 -4.362675e-13
-8.180000e+00 -5.674285e-13
-8.170000e+00 -6.921716e-13
-8.160000e+00 -8.053499e-13
-8.150000e+00 -9.020806e-13
-8.140000e+00 -9.779247e-13
-8.130000e+00 -1.029054e-12
-8.120000e+00 -1.052398e-12
-8.110001e+00 -1.045759e-12
-8.100000e+00 -1.007907e-12
-8.090000e+00 -9.386311e-13
-8.080000e+00 -8.387577e-13
-8.070000e+00 -7.101345e-13
-8.060000e+00 -5.555740e-13
-8.050000e+00 -3.787644e-13
-8.040000e+00 -1.841486e-13
-8.030000e+00 2.322535e-14
-8.020000e+00 2.378744e-13
-8.010000e+00 4.540677e-13
-8.000000e+00 6.660233e-13
-7.990000e+00 8.681062e-13
-7.980000e+00 1.055022e-12
-7.970000e+00 1.222000e-12
-7.960000e+00 1.364955e-12
-7.950000e+00 1.480626e-12
-7.940000e+00 1.566687e-12
-7.930000e+00 1.621822e-12
-7.920000e+00 1.645762e-12
-7.910000e+00 1.639293e-12
-7.900000e+00 1.604210e-12
-7.890000e+00 1.543253e-12
-7.880000e+00 1.459996e-12
-7.870000e+00 1.358711e-12
-7.860000e+00 1.244207e-12
-7.850000e+00 1.121650e-12
-7.840000e+00 9.963686e-13
-7.830000e+00 8.736602e-13
-7.820000e+00 7.585934e-13
-7.810000e+00 6.558235e-13
-7.800000e+00 5.694240e-13
-7.790000e+00 5.027403e-13
-7.780000e+00 4.582730e-13
-7.770000e+00 4.375933e-13
-7.760000e+00 4.412942e-13
-7.750000e+00 4.689798e-13
-7.740000e+00 5.192929e-13
-7.730000e+00 5.899796e-13
-7.720000e+00 6.779883e-13
-7.710000e+00 7.795999e-13
-7.700000e+00 8.905833e-13
-7.690000e+00 1.006371e-12
-7.680000e+00 1.122250e-12
-7.670000e+00 1.233549e-12
-7.660000e+00 1.335842e-12
-7.650000e+00 1.425120e-12
-7.640000e+00 1.497963e-12
-7.630000e+00 1.551684e-12
-7.620000e+00 1.584440e-12
-7.610000e+00 1.595313e-12
-7.600000e+00 1.584353e-12
-7.590000e+00 1.552585e-12
-7.580000e+00 1.501972e-12
-7.570000e+00 1.435342e-12
-7.560000e+00 1.356279e-12
-7.550000e+00 1.268984e-12
-7.540000e+00 1.178106e-12
-7.530000e+00 1.088556e-12
-7.520000e+00 1.005310e-12
-7.510000e+00 9.331988e-13
-7.500000e+00 8.767133e-13
-7.490000e+00 8.398085e-13
-7.480000e+00 8.257357e-13
-7.470000e+00 8.368953e-13
-7.460000e+00 8.747242e-13
-7.450000e+00 9.396187e-13
-7.440000e+00 1.030899e-12
-7.430000e+00 1.146817e-12
-7.420000e+00 1.284603e-12
-7.410000e+00 1.440562e-12
-7.400000e+00 1.610198e-12
-7.390000e+00 1.788385e-12
-7.380000e+00 1.969557e-12
-7.370000e+00 2.147922e-12
-7.360000e+00 2.317690e-12
-7.350000e+00 2.473311e-12
-7.340000e+00 2.609695e-12
-7.330000e+00 2.722433e-12
-7.320000e+00 2.807991e-12
-7.310000e+00 2.863869e-12
-7.300000e+00 2.888731e-12
-7.290000e+00 2.882489e-12
-7.280000e+00 2.846343e-12
-7.270000e+00 2.782766e-12
-7.260000e+00 2.695447e-12
-7.250000e+00 2.589180e-12
-7.240000e+00 2.469716e-12
-7.230000e+00 2.343565e-12
-7.220000e+00 2.217768e-12
-7.210000e+00 2.099651e-12
-7.200000e+00 1.996550e-12
-7.190000e+00 1.915539e-12
-7.180000e+00 1.863156e-12
-7.170000e+00 1.845146e-12
-7.160000e+00 1.866226e-12
-7.150000e+00 1.929884e-12
-7.140000e+00 2.038217e-12
-7.130000e+00 2.191824e-12
-7.120000e+00 2.389740e-12
-7.110000e+00 2.629439e-12
-7.100000e+00 2.906888e-12
-7.090000e+00 3.216655e-12
-7.080000e+00 3.552078e-12
-7.070000e+00 3.905477e-12
-7.060000e+00 4.268409e-12
-7.050000e+00 4.631954e-12
-7.040000e+00 4.987029e-12
-7.030000e+00 5.324710e-12
-7.020000e+00 5.636549e-12
-7.010000e+00 5.914891e-12
-7.000000e+00 6.153160e-12
-6.990000e+00 6.346115e-12
-6.980000e+00 6.490055e-12
-6.970000e+00 6.582979e-12
-6.960000e+00 6.624688e-12
-6.950000e+00 6.616815e-12
-6.940000e+00 6.562800e-12
-6.930000e+00 6.467791e-12
-6.920000e+00 6.338487e-12
-6.910000e+00 6.182922e-12
-6.900000e+00 6.010194e-12
-6.890000e+00 5.830158e-12
-6.880000e+00 5.653081e-12
-6.870000e+00 5.489285e-12
-6.860000e+00 5.348776e-12
-6.850000e+00 5.240883e-12
-6.840000e+00 5.173914e-12
-6.830000e+00 5.154851e-12
-6.820000e+00 5.189080e-12
-6.810000e+00 5.280183e-12
-6.800000e+00 5.429785e-12
-6.790000e+00 5.637476e-12
-6.780000e+00 5.900805e-12
-6.770000e+00 6.215342e-12
-6.760000e+00 6.574818e-12
-6.750000e+00 6.971331e-12
-6.740000e+00 7.395616e-12
-6.730000e+00 7.837361e-12
-6.720000e+00 8.285573e-12
-6.710000e+00 8.728965e-12
-6.700000e+00 9.156370e-12
-6.690000e+00 9.557139e-12
-6.680000e+00 9.921543e-12
-6.670000e+00 1.024113e-11
-6.660000e+00 1.050906e-11
-6.650000e+00 1.072038e-11
-6.640000e+00 1.087218e-11
-6.630000e+00 1.096381e-11
-6.620000e+00 1.099688e-11
-6.610000e+00 1.097525e-11
-6.600000e+00 1.090490e-11
-6.590000e+00 1.079381e-11
-6.580000e+00 1.065165e-11
-6.570000e+00 1.048946e-11
-6.560000e+00 1.031933e-11
-6.550000e+00 1.015394e-11
-6.540000e+00 1.000613e-11
-6.530000e+00 9.888487e-12
-6.520000e+00 9.812858e-12
-6.510000e+00 9.789959e-12
-6.500000e+00 9.828981e-12
-6.490000e+00 9.937255e-12
-6.480000e+00 1.011999e-11
-6.470000e+00 1.038007e-11
-6.460000e+00 1.071792e-11
-6.450000e+00 1.113153e-11
-6.440000e+00 1.161643e-11
-6.430000e+00 1.216591e-11
-6.420000e+00 1.277120e-11
-6.410000e+00 1.342176e-11
-6.400000e+00 1.410569e-11
-6.390000e+00 1.481010e-11
-6.380000e+00 1.552158e-11
-6.370000e+00 1.622665e-11
-6.360000e+00 1.691230e-11
-6.350000e+00 1.756636e-11
-6.340000e+00 1.817803e-11
-6.330000e+00 1.873821e-11
-6.320000e+00 1.923985e-11
-6.310000e+00 1.967822e-11
-6.300000e+00 2.005110e-11
-6.290000e+00 2.035884e-11
-6.280000e+00 2.060438e-11
-6.270000e+00 2.079316e-11
-6.260000e+00 2.093295e-11
-6.250000e+00 2.103356e-11
-6.240000e+00 2.110651e-11
-6.230000e+00 2.116465e-11
-6.220000e+00 2.122168e-11
-6.210000e+00 2.129168e-11
-6.200000e+00 2.138861e-11
-6.190000e+00 2.152579e-11
-6.180000e+00 2.171546e-11
-6.170000e+00 2.196829e-11
-6.160000e+00 2.229304e-11
-6.150000e+00 2.269619e-11
-6.140000e+00 2.318171e-11
-6.130000e+00 2.375091e-11
-6.120000e+00 2.440235e-11
-6.110000e+00 2.513192e-11
-6.100000e+00 2.593290e-11
-6.090000e+00 2.679622e-11
-6.080000e+00 2.771076e-11
-6.070000e+00 2.866371e-11
-6.060000e+00 2.964101e-11
-6.050000e+00 3.062785e-11
-6.040000e+00 3.160916e-11
-6.030000e+00 3.257012e-11
-6.020000e+00 3.349674e-11
-6.010000e+00 3.437625e-11
-6.000000e+00 3.519764e-11
-5.990000e+00 3.595198e-11
-5.980000e+00 3.663279e-11
-5.970000e+00 3.723625e-11
-5.960000e+00 3.776130e-11
-5.950000e+00 3.820980e-11
-5.940000e+00 3.858635e-11
-5.930000e+00 3.889823e-11
-5.920000e+00 3.915512e-11
-5.910000e+00 3.936881e-11
-5.900000e+00 3.955276e-11
-5.890000e+00 3.972171e-11
-5.880000e+00 3.989116e-11
-5.870000e+00 4.007684e-11
-5.860000e+00 4.029421e-11
-5.850000e+00 4.055795e-11
-5.840000e+00 4.088148e-11
-5.830000e+00 4.127652e-11
-5.820000e+00 4.175273e-11
-5.810000e+00 4.231738e-11
-5.800000e+00 4.297516e-11
-5.790000e+00 4.372807e-11
-5.780000e+00 4.457535e-11
-5.770000e+00 4.551357e-11
-5.760000e+00 4.653677e-11
-5.750000e+00 4.763673e-11
-5.740000e+00 4.880326e-11
-5.730000e+00 5.002457e-11
-5.720000e+00 5.128773e-11
-5.710000e+00 5.257916e-11
-5.700000e+00 5.388502e-11
-5.690000e+00 5.519181e-11
-5.680000e+00 5.648675e-11
-5.670000e+00 5.775825e-11
-5.660000e+00 5.899630e-11
-5.650000e+00 6.019279e-11
-5.640000e+00 6.134173e-11
-5.630000e+00 6.243950e-11
-5.620000e+00 6.348483e-11
-5.610000e+00 6.447886e-11
-5.600000e+00 6.542508e-11
-5.590000e+00 6.632909e-11
-5.580000e+00 6.719838e-11
-5.570000e+00 6.804204e-11
-5.560000e+00 6.887039e-11
-5.550000e+00 6.969455e-11
-5.540000e+00 7.052606e-11
-5.530000e+00 7.137640e-11
-5.520000e+00 7.225663e-11
-5.510000e+00 7.317693e-11
-5.500000e+00 7.414628e-11
-5.490000e+00 7.517214e-11
-5.480000e+00 7.626022e-11
-5.470000e+00 7.741427e-11
-5.460000e+00 7.863604e-11
-5.450000e+00 7.992520e-11
-5.440000e+00 8.127948e-11
-5.430000e+00 8.269472e-11
-5.420000e+00 8.416515e-11
-5.410000e+00 8.568361e-11
-5.400000e+00 8.724193e-11
-5.390000e+00 8.883116e-11
-5.380000e+00 9.044213e-11
-5.370000e+00 9.206566e-11
-5.360000e+00 9.369307e-11
-5.350000e+00 9.531645e-11
-5.340000e+00 9.692906e-11
-5.330000e+00 9.852554e-11
-5.320000e+00 1.001022e-10
-5.310000e+00 1.016571e-10
-5.300000e+00 1.031902e-10
-5.290000e+00 1.047033e-10
-5.280000e+00 1.062001e-10
-5.270000e+00 1.076860e-10
-5.260000e+00 1.091678e-10
-5.250000e+00 1.106535e-10
-5.240000e+00 1.121523e-10
-5.230000e+00 1.136738e-10
-5.220000e+00 1.152278e-10
-5.210000e+00 1.168241e-10
-5.200000e+00 1.184720e-10
-5.190000e+00 1.201799e-10
-5.180000e+00 1.219550e-10
-5.170000e+00 1.238034e-10
-5.160000e+00 1.257292e-10
-5.150000e+00 1.277351e-10
-5.140000e+00 1.298216e-10
-5.130000e+00 1.319874e-10
-5.120000e+00 1.342297e-10
-5.110000e+00 1.365436e-10
-5.100000e+00 1.389228e-10
-5.090000e+00 1.413598e-10
-5.080000e+00 1.438462e-10
-5.070000e+00 1.463726e-10
-5.060000e+00 1.489294e-10
-5.050000e+00 1.515072e-10
-5.040000e+00 1.540967e-10
-5.030000e+00 1.566894e-10
-5.020000e+00 1.592776e-10
-5.010000e+00 1.618550e-10
-5.000000e+00 1.644167e-10
-4.990000e+00 1.669593e-10
-4.980000e+00 1.694814e-10
-4.970000e+00 1.719828e-10
-4.960000e+00 1.744654e-10
-4.950000e+00 1.769326e-10
-4.940000e+00 1.793890e-10
-4.930000e+00 1.818410e-10
-4.920000e+00 1.842953e-10
-4.910000e+00 1.867598e-10
-4.900000e+00 1.892429e-10
-4.890000e+00 1.917528e-10
-4.880000e+00 1.942978e-10
-4.870000e+00 1.968858e-10
-4.860000e+00 1.995239e-10
-4.850000e+00 2.022184e-10
-4.840000e+00 2.049747e-10
-4.830000e+00 2.077968e-10
-4.820000e+00 2.106876e-10
-4.810000e+00 2.136488e-10
-4.800000e+00 2.166807e-10
-4.790000e+00 2.197829e-10
-4.780000e+00 2.229536e-10
-4.770000e+00 2.261906e-10
-4.760000e+00 2.294909e-10
-4.750000e+00 2.328513e-10
-4.740000e+00 2.362684e-10
-4.730000e+00 2.397391e-10
-4.720000e+00 2.432607e-10
-4.710000e+00 2.468308e-10
-4.700000e+00 2.504482e-10
-4.690000e+00 2.541121e-10
-4.680000e+00 2.578232e-10
-4.670000e+00 2.615827e-10
-4.660000e+00 2.653933e-10
-4.650000e+00 2.692582e-10
-4.640000e+00 2.731817e-10
-4.630000e+00 2.771686e-10
-4.620000e+00 2.812242e-10
-4.610000e+00 2.853540e-10
-4.600000e+00 2.895634e-10
-4.590000e+00 2.938576e-10
-4.580000e+00 2.982412e-10
-4.570000e+00 3.027177e-10
-4.560000e+00 3.072899e-10
-4.550000e+00 3.119593e-10
-4.540000e+00 3.167258e-10
-4.530000e+00 3.215880e-10
-4.520000e+00 3.265429e-10
-4.510000e+00 3.315861e-10
-4.500000e+00 3.367115e-10
-4.490000e+00 3.419121e-10
-4.480000e+00 3.471794e-10
-4.470000e+00 3.525046e-10
-4.460000e+00 3.578777e-10
-4.450000e+00 3.632891e-10
-4.440000e+00 3.687289e-10
-4.430000e+00 3.741878e-10
-4.420000e+00 3.796574e-10
-4.410000e+00 3.851302e-10
-4.400000e+00 3.906004e-10
-4.390000e+00 3.960635e-10
-4.380000e+00 4.015174e-10
-4.370000e+00 4.069616e-10
-4.360000e+00 4.123979e-10
-4.350000e+00 4.178299e-10
-4.340000e+00 4.232636e-10
-4.330000e+00 4.287066e-10
-4.320000e+00 4.341683e-10
-4.310000e+00 4.396596e-10
-4.300000e+00 4.451922e-10
-4.290000e+00 4.507789e-10
-4.280000e+00 4.564328e-10
-4.270000e+00 4.621667e-10
-4.260000e+00 4.679935e-10
-4.250000e+00 4.739249e-10
-4.240000e+00 4.799717e-10
-4.230000e+00 4.861432e-10
-4.220000e+00 4.924472e-10
-4.210000e+00 4.988895e-10
-4.200000e+00 5.054738e-10
-4.190000e+00 5.122019e-10
-4.180000e+00 5.190736e-10
-4.170000e+00 5.260866e-10
-4.160000e+00 5.332371e-10
-4.150000e+00 5.405196e-10
-4.140000e+00 5.479271e-10
-4.130000e+00 5.554521e-10
-4.120000e+00 5.630860e-10
-4.110000e+00 5.708202e-10
-4.100000e+00 5.786461e-10
-4.090000e+00 5.865556e-10
-4.080000e+00 5.945414e-10
-4.070000e+00 6.025971e-10
-4.060000e+00 6.107177e-10
-4.050000e+00 6.188997e-10
-4.040000e+00 6.271412e-10
-4.030000e+00 6.354418e-10
-4.020000e+00 6.438029e-10
-4.010000e+00 6.522273e-10
-4.000000e+00 6.607192e-10
-3.990000e+00 6.692841e-10
-3.980000e+00 6.779282e-10
-3.970000e+00 6.866585e-10
-3.960000e+00 6.954821e-10
-3.950000e+00 7.044062e-10
-3.940001e+00 7.134375e-10
-3.930000e+00 7.225820e-10
-3.920000e+00 7.318449e-10
-3.910000e+00 7.412298e-10
-3.900001e+00 7.507392e-10
-3.890000e+00 7.603739e-10
-3.880000e+00 7.701330e-10
-3.870000e+00 7.800140e-10
-3.860001e+00 7.900128e-10
-3.850000e+00 8.001241e-10
-3.840000e+00 8.103410e-10
-3.830000e+00 8.206560e-10
-3.820001e+00 8.310609e-10
-3.810000e+00 8.415469e-10
-3.800000e+00 8.521060e-10
-3.790000e+00 8.627298e-10
-3.780000e+00 8.734113e-10
-3.770000e+00 8.841446e-10
-3.760000e+00 8.949253e-10
-3.750000e+00 9.057506e-10
-3.740000e+00 9.166198e-10
-3.730000e+00 9.275345e-10
-3.720000e+00 9.384983e-10
-3.710000e+00 9.495167e-10
-3.700000e+00 9.605978e-10
-3.690001e+00 9.717512e-10
-3.680000e+00 9.829884e-10
-3.670000e+00 9.943220e-10
-3.660000e+00 1.005766e-09
-3.650001e+00 1.017333e-09
-3.640000e+00 1.029040e-09
-3.630000e+00 1.040899e-09
-3.620000e+00 1.052924e-09
-3.610001e+00 1.065127e-09
-3.600000e+00 1.077518e-09
-3.590000e+00 1.090106e-09
-3.580000e+00 1.102897e-09
-3.570001e+00 1.115895e-09
-3.560000e+00 1.129102e-09
-3.550000e+00 1.142516e-09
-3.540000e+00 1.156134e-09
-3.530000e+00 1.169948e-09
-3.520000e+00 1.183952e-09
-3.510000e+00 1.198135e-09
-3.500000e+00 1.212484e-09
-3.490000e+00 1.226987e-09
-3.480000e+00 1.241629e-09
-3.470000e+00 1.256397e-09
-3.460000e+00 1.271276e-09
-3.450000e+00 1.286252e-09
-3.440001e+00 1.301314e-09
-3.430000e+00 1.316449e-09
-3.420000e+00 1.331649e-09
-3.410000e+00 1.346905e-09
-3.400001e+00 1.362212e-09
-3.390000e+00 1.377567e-09
-3.380000e+00 1.392968e-09
-3.370000e+00 1.408418e-09
-3.360001e+00 1.423919e-09
-3.350000e+00 1.439476e-09
-3.340000e+00 1.455097e-09
-3.330000e+00 1.470790e-09
-3.320001e+00 1.486565e-09
-3.310000e+00 1.502431e-09
-3.300000e+00 1.518398e-09
-3.290000e+00 1.534477e-09
-3.280000e+00 1.550678e-09
-3.270000e+00 1.567010e-09
-3.260000e+00 1.583481e-09
-3.250000e+00 1.600099e-09
-3.240000e+00 1.616867e-09
-3.230000e+00 1.633792e-09
-3.220000e+00 1.650874e-09
-3.210000e+00 1.668116e-09
-3.200000e+00 1.685518e-09
-3.190001e+00 1.703077e-09
-3.180000e+00 1.720791e-09
-3.170000e+00 1.738657e-09
-3.160000e+00 1.756672e-09
-3.150001e+00 1.774832e-09
-3.140000e+00 1.793132e-09
-3.130000e+00 1.811570e-09
-3.120000e+00 1.830143e-09
-3.110001e+00 1.848848e-09
-3.100000e+00 1.867684e-09
-3.090000e+00 1.886652e-09
-3.080000e+00 1.905752e-09
-3.070001e+00 1.924986e-09
-3.060000e+00 1.944358e-09
-3.050000e+00 1.963871e-09
-3.040000e+00 1.983530e-09
-3.030000e+00 2.003341e-09
-3.020000e+00 2.023308e-09
-3.010000e+00 2.043437e-09
-3.000000e+00 2.063731e-09
-2.990000e+00 2.084197e-09
-2.980000e+00 2.104836e-09
-2.970000e+00 2.125651e-09
-2.960000e+00 2.146641e-09
-2.950000e+00 2.167807e-09
-2.940001e+00 2.189144e-09
-2.930000e+00 2.210648e-09
-2.920000e+00 2.232314e-09
-2.910000e+00 2.254132e-09
-2.900001e+00 2.276095e-09
-2.890000e+00 2.298191e-09
-2.880000e+00 2.320409e-09
-2.870000e+00 2.342736e-09
-2.860001e+00 2.365162e-09
-2.850000e+00 2.387673e-09
-2.840000e+00 2.410259e-09
-2.830000e+00 2.432909e-09
-2.820001e+00 2.455613e-09
-2.810000e+00 2.478364e-09
-2.800000e+00 2.501156e-09
-2.790000e+00 2.523984e-09
-2.780000e+00 2.546848e-09
-2.770000e+00 2.569746e-09
-2.760000e+00 2.592682e-09
-2.750000e+00 2.615660e-09
-2.740000e+00 2.638686e-09
-2.730000e+00 2.661768e-09
-2.720000e+00 2.684914e-09
-2.710000e+00 2.708134e-09
-2.700000e+00 2.731438e-09
-2.690001e+00 2.754835e-09
-2.680000e+00 2.778337e-09
-2.670000e+00 2.801951e-09
-2.660000e+00 2.825685e-09
-2.650001e+00 2.849545e-09
-2.640000e+00 2.873536e-09
-2.630000e+00 2.897659e-09
-2.620000e+00 2.921914e-09
-2.610001e+00 2.946301e-09
-2.600000e+00 2.970813e-09
-2.590000e+00 2.995445e-09
-2.580000e+00 3.020189e-09
-2.570001e+00 3.045036e-09
-2.560000e+00 3.069975e-09
-2.550000e+00 3.094994e-09
-2.540000e+00 3.120083e-09
-2.530001e+00 3.145230e-09
-2.520000e+00 3.170423e-09
-2.510000e+00 3.195652e-09
-2.500000e+00 3.220910e-09
-2.490000e+00 3.246188e-09
-2.480000e+00 3.271483e-09
-2.470000e+00 3.296790e-09
-2.460000e+00 3.322109e-09
-2.450000e+00 3.347441e-09
-2.440001e+00 3.372790e-09
-2.430000e+00 3.398160e-09
-2.420000e+00 3.423558e-09
-2.410000e+00 3.448992e-09
-2.400001e+00 3.474471e-09
-2.390000e+00 3.500003e-09
-2.380000e+00 3.525597e-09
-2.370000e+00 3.551262e-09
-2.360001e+00 3.577003e-09
-2.350000e+00 3.602825e-09
-2.340000e+00 3.628732e-09
-2.330000e+00 3.654725e-09
-2.320001e+00 3.680800e-09
-2.310000e+00 3.706953e-09
-2.300000e+00 3.733174e-09
-2.290000e+00 3.759455e-09
-2.280001e+00 3.785779e-09
-2.270000e+00 3.812131e-09
-2.260000e+00 3.838494e-09
-2.250000e+00 3.864845e-09
-2.240000e+00 3.891164e-09
-2.230000e+00 3.917430e-09
-2.220000e+00 3.943620e-09
-2.210000e+00 3.969714e-09
-2.200000e+00 3.995690e-09
-2.190001e+00 4.021532e-09
-2.180000e+00 4.047223e-09
-2.170000e+00 4.072750e-09
-2.160000e+00 4.098104e-09
-2.150001e+00 4.123278e-09
-2.140000e+00 4.148270e-09
-2.130000e+00 4.173080e-09
-2.120000e+00 4.197712e-09
-2.110001e+00 4.222173e-09
-2.100000e+00 4.246473e-09
-2.090000e+00 4.270624e-09
-2.080000e+00 4.294638e-09
-2.070001e+00 4.318532e-09
-2.060000e+00 4.342319e-09
-2.050000e+00 4.366013e-09
-2.040000e+00 4.389629e-09
-2.030001e+00 4.413175e-09
-2.020000e+00 4.436662e-09
-2.010000e+00 4.460096e-09
-2.000000e+00 4.483477e-09
-1.990000e+00 4.506804e-09
-1.980000e+00 4.530073e-09
-1.970000e+00 4.553271e-09
-1.960000e+00 4.576386e-09
-1.950000e+00 4.599401e-09
-1.940001e+00 4.622295e-09
-1.930000e+00 4.645042e-09
-1.920000e+00 4.667618e-09
-1.910000e+00 4.689996e-09
-1.900001e+00 4.712145e-09
-1.890000e+00 4.734038e-09
-1.880000e+00 4.755647e-09
-1.870000e+00 4.776946e-09
-1.860001e+00 4.797911e-09
-1.850000e+00 4.818518e-09
-1.840000e+00 4.838753e-09
-1.830000e+00 4.858599e-09
-1.820001e+00 4.878046e-09
-1.810000e+00 4.897088e-09
-1.800000e+00 4.915723e-09
-1.790000e+00 4.933953e-09
-1.780001e+00 4.951783e-09
-1.770000e+00 4.969221e-09
-1.760000e+00 4.986278e-09
-1.750000e+00 5.002966e-09
-1.740000e+00 5.019298e-09
-1.730000e+00 5.035288e-09
-1.720000e+00 5.050948e-09
-1.710000e+00 5.066290e-09
-1.700000e+00 5.081321e-09
-1.690001e+00 5.096047e-09
-1.680000e+00 5.110471e-09
-1.670000e+00 5.124589e-09
-1.660000e+00 5.138394e-09
-1.650001e+00 5.151875e-09
-1.640000e+00 5.165016e-09
-1.630000e+00 5.177795e-09
-1.620000e+00 5.190188e-09
-1.610001e+00 5.202165e-09
-1.600000e+00 5.213693e-09
-1.590000e+00 5.224741e-09
-1.580000e+00 5.235269e-09
-1.570001e+00 5.245242e-09
-1.560000e+00 5.254624e-09
-1.550000e+00 5.263377e-09
-1.540000e+00 5.271470e-09
-1.530001e+00 5.278872e-09
-1.520000e+00 5.285553e-09
-1.510000e+00 5.291494e-09
-1.500000e+00 5.296673e-09
-1.490000e+00 5.301078e-09
-1.480000e+00 5.304700e-09
-1.470000e+00 5.307534e-09
-1.460000e+00 5.309583e-09
-1.450000e+00 5.310851e-09
-1.440001e+00 5.311345e-09
-1.430000e+00 5.311078e-09
-1.420000e+00 5.310064e-09
-1.410000e+00 5.308316e-09
-1.400001e+00 5.305851e-09
-1.390000e+00 5.302682e-09
-1.380000e+00 5.298823e-09
-1.370000e+00 5.294284e-09
-1.360001e+00 5.289071e-09
-1.350000e+00 5.283187e-09
-1.340000e+00 5.276632e-09
-1.330000e+00 5.269396e-09
-1.320001e+00 5.261470e-09
-1.310000e+00 5.252835e-09
-1.300000e+00 5.243468e-09
-1.290000e+00 5.233342e-09
-1.280001e+00 5.222426e-09
-1.270000e+00 5.210683e-09
-1.260000e+00 5.198075e-09
-1.250000e+00 5.184562e-09
-1.240000e+00 5.170100e-09
-1.230000e+00 5.154648e-09
-1.220000e+00 5.138162e-09
-1.210000e+00 5.120602e-09
-1.200000e+00 5.101931e-09
-1.190001e+00 5.082112e-09
-1.180000e+00 5.061115e-09
-1.170000e+00 5.038910e-09
-1.160000e+00 5.015476e-09
-1.150001e+00 4.990793e-09
-1.140000e+00 4.964848e-09
-1.130000e+00 4.937631e-09
-1.120000e+00 4.909135e-09
-1.110001e+00 4.879360e-09
-1.100000e+00 4.848303e-09
-1.090000e+00 4.815969e-09
-1.080000e+00 4.782360e-09
-1.070001e+00 4.747482e-09
-1.060000e+00 4.711334e-09
-1.050000e+00 4.673922e-09
-1.040000e+00 4.635245e-09
-1.030001e+00 4.595298e-09
-1.020000e+00 4.554076e-09
-1.010000e+00 4.511568e-09
-1.000000e+00 4.467760e-09
-9.899998e-01 4.422633e-09
-9.800005e-01 4.376163e-09