-1.200000e+01 0.000000e+00
-1.199000e+01 0.000000e+00
-1.198000e+01 0.000000e+00
-1.197000e+01 0.000000e+00
-1.196000e+01 1.512875e-29
-1.195000e+01 -6.286995e-26
-1.194000e+01 -6.778925e-25
-1.193000e+01 -3.967848e-24
-1.192000e+01 -1.670167e-23
-1.191000e+01 -5.654063e-23
-1.190000e+01 -1.633550e-22
-1.189000e+01 -4.176567e-22
-1.188000e+01 -9.680393e-22
-1.187000e+01 -2.068837e-21
-1.186000e+01 -4.127865e-21
-1.185000e+01 -7.762022e-21
-1.184000e+01 -1.385564e-20
-1.183000e+01 -2.361296e-20
-1.182000e+01 -3.859206e-20
-1.181000e+01 -6.070341e-20
-1.180000e+01 -9.215228e-20
-1.179000e+01 -1.353013e-19
-1.178000e+01 -1.924276e-19
-1.177000e+01 -2.653495e-19
-1.176000e+01 -3.549015e-19
-1.175000e+01 -4.602411e-19
-1.174000e+01 -5.779831e-19
-1.173000e+01 -7.011697e-19
-1.172000e+01 -8.181014e-19
-1.171000e+01 -9.110774e-19
-1.170000e+01 -9.551136e-19
-1.169000e+01 -9.167348e-19
-1.168000e+01 -7.529585e-19
-1.167000e+01 -4.106131e-19
-1.166000e+01 1.738518e-19
-1.165000e+01 1.073890e-18
-1.164000e+01 2.371547e-18
-1.163000e+01 4.155147e-18
-1.162000e+01 6.515828e-18
-1.161000e+01 9.542827e-18
-1.160000e+01 1.331745e-17
-1.159000e+01 1.790575e-17
-1.158000e+01 2.334995e-17
-1.157000e+01 2.965887e-17
-1.156000e+01 3.679760e-17
-1.155000e+01 4.467675e-17
-1.154000e+01 5.314193e-17
-1.153000e+01 6.196385e-17
-1.152000e+01 7.082989e-17
-1.151000e+01 7.933780e-17
-1.150000e+01 8.699241e-17
-1.149000e+01 9.320604e-17
-1.148000e+01 9.730337e-17
-1.147000e+01 9.853165e-17
-1.146000e+01 9.607658e-17
-1.145000e+01 8.908431e-17
-1.144000e+01 7.668979e-17
-1.143000e+01 5.805128e-17
-1.142000e+01 3.239060e-17
-1.141000e+01 -9.616892e-19
-1.140000e+01 -4.251719e-17
-1.139000e+01 -9.257826e-17
-1.138000e+01 -1.511862e-16
-1.137000e+01 -2.180707e-16
-1.136000e+01 -2.926041e-16
-1.135000e+01 -3.737618e-16
-1.134000e+01 -4.600917e-16
-1.133000e+01 -5.496974e-16
-1.132000e+01 -6.402339e-16
-1.131000e+01 -7.289226e-16
-1.130000e+01 -8.125839e-16
-1.129000e+01 -8.876906e-16
-1.128000e+01 -9.504439e-16
-1.127000e+01 -9.968683e-16
-1.126000e+01 -1.022930e-15
-1.125000e+01 -1.024669e-15
-1.124000e+01 -9.983559e-16
-1.123000e+01 -9.406496e-16
-1.122000e+01 -8.487709e-16
-1.121000e+01 -7.206742e-16
-1.120000e+01 -5.552146e-16
-1.119000e+01 -3.523046e-16
-1.118000e+01 -1.130503e-16
-1.117000e+01 1.601374e-16
-1.116000e+01 4.634661e-16
-1.115000e+01 7.917246e-16
-1.114000e+01 1.138293e-15
-1.113000e+01 1.495202e-15
-1.112000e+01 1.853250e-15
-1.111000e+01 2.202169e-15
-1.110000e+01 2.530856e-15
-1.109000e+01 2.827650e-15
-1.108000e+01 3.080659e-15
-1.107000e+01 3.278129e-15
-1.106000e+01 3.408850e-15
-1.105000e+01 3.462569e-15
-1.104000e+01 3.430429e-15
-1.103000e+01 3.305384e-15
-1.102000e+01 3.082604e-15
-1.101000e+01 2.759832e-15
-1.100000e+01 2.337689e-15
-1.099000e+01 1.819909e-15
-1.098000e+01 1.213484e-15
-1.097000e+01 5.287163e-16
-1.096000e+01 -2.208472e-16
-1.095000e+01 -1.018585e-15
-1.094000e+01 -1.845099e-15
-1.093000e+01 -2.678621e-15
-1.092000e+01 -3.495543e-15
-1.091000e+01 -4.271044e-15
-1.090000e+01 -4.979801e-15
-1.089000e+01 -5.596781e-15
-1.088000e+01 -6.098073e-15
-1.087000e+01 -6.461745e-15
-1.086000e+01 -6.668690e-15
-1.085000e+01 -6.703445e-15
-1.084000e+01 -6.554928e-15
-1.083000e+01 -6.217089e-15
-1.082000e+01 -5.689422e-15
-1.081000e+01 -4.977332e-15
-1.080000e+01 -4.092314e-15
-1.079000e+01 -3.051945e-15
-1.078000e+01 -1.879659e-15
-1.077000e+01 -6.043195e-16
-1.076000e+01 7.404308e-16
-1.075000e+01 2.117010e-15
-1.074000e+01 3.484929e-15
-1.073000e+01 4.801975e-15
-1.072000e+01 6.025520e-15
-1.071000e+01 7.113918e-15
-1.070000e+01 8.027938e-15
-1.069000e+01 8.732190e-15
-1.068000e+01 9.196487e-15
-1.067000e+01 9.397098e-15
-1.066000e+01 9.317836e-15
-1.065000e+01 8.950933e-15
-1.064000e+01 8.297663e-15
-1.063000e+01 7.368671e-15
-1.062000e+01 6.183994e-15
-1.061000e+01 4.772739e-15
-1.060000e+01 3.172434e-15
-1.059000e+01 1.428041e-15
-1.058000e+01 -4.093349e-16
-1.057000e+01 -2.284016e-15
-1.056000e+01 -4.137550e-15
-1.055000e+01 -5.910686e-15
-1.054000e+01 -7.545456e-15
-1.053000e+01 -8.987297e-15
-1.052000e+01 -1.018712e-14
-1.051000e+01 -1.110328e-14
-1.050000e+01 -1.170330e-14
-1.049000e+01 -1.196536e-14
-1.048000e+01 -1.187939e-14
-1.047000e+01 -1.144782e-14
-1.046000e+01 -1.068580e-14
-1.045000e+01 -9.620983e-15
-1.044000e+01 -8.292765e-15
-1.043000e+01 -6.751091e-15
-1.042000e+01 -5.054727e-15
-1.041000e+01 -3.269134e-15
-1.040000e+01 -1.463981e-15
-1.039000e+01 2.896374e-16
-1.038000e+01 1.922154e-15
-1.037000e+01 3.368569e-15
-1.036000e+01 4.571436e-15
-1.035000e+01 5.483684e-15
-1.034000e+01 6.071150e-15
-1.033000e+01 6.314699e-15
-1.032000e+01 6.211815e-15
-1.031000e+01 5.777588e-15
-1.030000e+01 5.044994e-15
-1.029000e+01 4.064439e-15
-1.028000e+01 2.902520e-15
-1.027000e+01 1.640019e-15
-1.026000e+01 3.691538e-16
-1.025000e+01 -8.098451e-16
-1.024000e+01 -1.792734e-15
-1.023000e+01 -2.475717e-15
-1.022000e+01 -2.760209e-15
-1.021000e+01 -2.557736e-15
-1.020000e+01 -1.794783e-15
-1.019000e+01 -4.173855e-16
-1.018000e+01 1.604718e-15
-1.017000e+01 4.274592e-15
-1.016000e+01 7.565434e-15
-1.015000e+01 1.141890e-14
-1.014000e+01 1.574455e-14
-1.013000e+01 2.042056e-14
-1.012000e+01 2.529565e-14
-1.011000e+01 3.019240e-14
-1.010000e+01 3.491181e-14
-1.009000e+01 3.923900e-14
-1.008000e+01 4.295008e-14
-1.007000e+01 4.581976e-14
-1.006000e+01 4.762971e-14
-1.005000e+01 4.817724e-14
-1.004000e+01 4.728415e-14
-1.003000e+01 4.480523e-14
-1.002000e+01 4.063632e-14
-1.001000e+01 3.472141e-14
-1.000000e+01 2.705856e-14
-9.990000e+00 1.770433e-14
-9.980000e+00 6.776459e-15
-9.970000e+00 -5.545470e-15
-9.960000e+00 -1.902139e-14
-9.950000e+00 -3.335435e-14
-9.940001e+00 -4.819638e-14
-9.930000e+00 -6.315634e-14
-9.920000e+00 -7.780993e-14
-9.910000e+00 -9.171135e-14
-9.900000e+00 -1.044065e-13
-9.890000e+00 -1.154470e-13
-9.880000e+00 -1.244056e-13
-9.870000e+00 -1.308907e-13
-9.860001e+00 -1.345615e-13
-9.850000e+00 -1.351417e-13
-9.840000e+00 -1.324322e-13
-9.830000e+00 -1.263218e-13
-9.820000e+00 -1.167953e-13
-9.809999e+00 -1.039395e-13
-9.800000e+00 -8.794545e-14
-9.790000e+00 -6.910763e-14
-9.780000e+00 -4.781996e-14
-9.770000e+00 -2.456795e-14
-9.760000e+00 8.236393e-17
-9.750000e+00 2.549871e-14
-9.740000e+00 5.099968e-14
-9.730000e+00 7.587424e-14
-9.720000e+00 9.940313e-14
-9.710000e+00 1.208814e-13
-9.700000e+00 1.396416e-13
-9.690001e+00 1.550764e-13
-9.680000e+00 1.666608e-13
-9.670000e+00 1.739720e-13
-9.660000e+00 1.767065e-13
-9.650000e+00 1.746949e-13
-9.640000e+00 1.679122e-13
-9.630000e+00 1.564831e-13
-9.620000e+00 1.406843e-13
-9.610001e+00 1.209400e-13
-9.600000e+00 9.781321e-14
-9.590000e+00 7.199219e-14
-9.580000e+00 4.427188e-14
-9.570000e+00 1.553121e-14
-9.559999e+00 -1.329330e-14
-9.550000e+00 -4.123676e-14
-9.540000e+00 -6.733719e-14
-9.530000e+00 -9.066784e-14
-9.520000e+00 -1.103695e-13
-9.510000e+00 -1.256817e-13
-9.500000e+00 -1.359717e-13
-9.490000e+00 -1.407600e-13
-9.480000e+00 -1.397423e-13
-9.470000e+00 -1.328054e-13
-9.460000e+00 -1.200376e-13
-9.450000e+00 -1.017330e-13
-9.440001e+00 -7.838870e-14
-9.430000e+00 -5.069460e-14
-9.420000e+00 -1.951721e-14
-9.410000e+00 1.412373e-14
-9.400000e+00 4.908442e-14
-9.390000e+00 8.413144e-14
-9.380000e+00 1.179804e-13
-9.370000e+00 1.493376e-13
-9.360001e+00 1.769438e-13
-9.350000e+00 1.996177e-13
-9.340000e+00 2.162992e-13
-9.330000e+00 2.260894e-13
-9.320000e+00 2.282865e-13
-9.309999e+00 2.224174e-13
-9.300000e+00 2.082612e-13
-9.290000e+00 1.858663e-13
-9.280000e+00 1.555583e-13
-9.270000e+00 1.179397e-13
-9.260000e+00 7.387928e-14
-9.250000e+00 2.449350e-14
-9.240000e+00 -2.888193e-14
-9.230000e+00 -8.472817e-14
-9.220000e+00 -1.413867e-13
-9.210000e+00 -1.971088e-13
-9.200000e+00 -2.501098e-13
-9.190001e+00 -2.986257e-13
-9.180000e+00 -3.409717e-13
-9.170000e+00 -3.755988e-13
-9.160000e+00 -4.011490e-13
-9.150000e+00 -4.165046e-13
-9.140000e+00 -4.208325e-13
-9.130000e+00 -4.136189e-13
-9.120000e+00 -3.946962e-13
-9.110001e+00 -3.642580e-13
-9.100000e+00 -3.228642e-13
-9.090000e+00 -2.714328e-13
-9.080000e+00 -2.112212e-13
-9.070000e+00 -1.437952e-13
-9.060000e+00 -7.098774e-14
-9.050000e+00 5.152443e-15
-9.040000e+00 8.242023e-14
-9.030000e+00 1.585200e-13
-9.020000e+00 2.311359e-13
-9.010000e+00 2.980049e-13
-9.000000e+00 3.569891e-13
-8.990000e+00 4.061461e-13
-8.980000e+00 4.437949e-13
-8.970000e+00 4.685741e-13
-8.960000e+00 4.794914e-13
-8.950000e+00 4.759630e-13
-8.940001e+00 4.578390e-13
-8.930000e+00 4.254172e-13
-8.920000e+00 3.794422e-13
-8.910000e+00 3.210893e-13
-8.900000e+00 2.519360e-13
-8.890000e+00 1.739187e-13
-8.880000e+00 8.927835e-14
-8.870000e+00 4.944908e-16
-8.860001e+00 -8.978839e-14
-8.850000e+00 -1.788414e-13
-8.840000e+00 -2.639355e-13
-8.830000e+00 -3.424267e-13
-8.820000e+00 -4.118401e-13
-8.810000e+00 -4.699486e-13
-8.800000e+00 -5.148460e-13
-8.790000e+00 -5.450092e-13
-8.780000e+00 -5.593501e-13
-8.770000e+00 -5.572526e-13
-8.760000e+00 -5.385963e-13
-8.750000e+00 -5.037638e-13
-8.740000e+00 -4.536314e-13
-8.730000e+00 -3.895449e-13
-8.720000e+00 -3.132798e-13
-8.710000e+00 -2.269866e-13
-8.700000e+00 -1.331251e-13
-8.690001e+00 -3.438720e-14
-8.680000e+00 6.638722e-14
-8.670000e+00 1.663003e-13
-8.660000e+00 2.624877e-13
-8.650000e+00 3.522096e-13
-8.640000e+00 4.329375e-13
-8.630000e+00 5.024342e-13
-8.620000e+00 5.588247e-13
-8.610001e+00 6.006547e-13
-8.600000e+00 6.269348e-13
-8.590000e+00 6.371707e-13
-8.580000e+00 6.313748e-13
-8.570000e+00 6.100631e-13
-8.560000e+00 5.742331e-13
-8.550000e+00 5.253276e-13
-8.540000e+00 4.651815e-13
-8.530000e+00 3.959580e-13
-8.520000e+00 3.200713e-13
-8.510000e+00 2.401028e-13
-8.500000e+00 1.587116e-13
-8.490000e+00 7.854193e-14
-8.480000e+00 2.132854e-15
-8.470000e+00 -6.816916e-14
-8.460000e+00 -1.302897e-13
-8.450000e+00 -1.824964e-13
-8.440001e+00 -2.234561e-13
-8.430000e+00 -2.522779e-13
-8.420000e+00 -2.685403e-13
-8.410000e+00 -2.723012e-13
-8.400000e+00 -2.640907e-13
-8.390000e+00 -2.448869e-13
-8.380000e+00 -2.160755e-13
-8.370000e+00 -1.793950e-13
-8.360001e+00 -1.368683e-13
-8.350000e+00 -9.072476e-14
-8.340000e+00 -4.331443e-14
-8.330000e+00 2.982247e-15
-8.320000e+00 4.584581e-14
-8.310000e+00 8.310710e-14
-8.300000e+00 1.128312e-13
-8.290000e+00 1.333927e-13
-8.280000e+00 1.435404e-13
-8.270000e+00 1.424474e-13
-8.260000e+00 1.297466e-13
-8.250000e+00 1.055486e-13
-8.240000e+00 7.044287e-14
-8.230000e+00 2.548007e-14
-8.220000e+00 -2.786182e-14
-8.210000e+00 -8.772794e-14
-8.200000e+00 -1.519511e-13
-8.190001e+00 -2.181285e-13
-8.180000e+00 -2.837073e-13
-8.170000e+00 -3.460771e-13
-8.160000e+00 -4.026647e-13
-8.150000e+00 -4.510287e-13
-8.140000e+00 -4.889497e-13
-8.130000e+00 -5.145137e-13
-8.120000e+00 -5.261851e-13
-8.110001e+00 -5.228657e-13
-8.100000e+00 -5.039402e-13
-8.090000e+00 -4.693030e-13
-8.080000e+00 -4.193676e-13
-8.070000e+00 -3.550576e-13
-8.060000e+00 -2.777793e-13
-8.050000e+00 -1.893768e-13
-8.040000e+00 -9.207136e-14
-8.030000e+00 1.161298e-14
-8.020000e+00 1.189348e-13
-8.010000e+00 2.270288e-13
-8.000000e+00 3.330040e-13
-7.990000e+00 4.340430e-13
-7.980000e+00 5.274989e-13
-7.970000e+00 6.109861e-13
-7.960000e+00 6.824620e-13
-7.950000e+00 7.402966e-13
-7.940000e+00 7.833265e-13
-7.930000e+00 8.108939e-13
-7.920000e+00 8.228648e-13
-7.910000e+00 8.196309e-13
-7.900000e+00 8.020910e-13
-7.890000e+00 7.716143e-13
-7.880000e+00 7.299880e-13
-7.870000e+00 6.793480e-13
-7.860000e+00 6.220986e-13
-7.850000e+00 5.608226e-13
-7.840000e+00 4.981847e-13
-7.830000e+00 4.368332e-13
-7.820000e+00 3.793025e-13
-7.810000e+00 3.279199e-13
-7.800000e+00 2.847223e-13
-7.790000e+00 2.513822e-13
-7.780000e+00 2.291500e-13
-7.770000e+00 2.188112e-13
-7.760000e+00 2.206622e-13
-7.750000e+00 2.345052e-13
-7.740000e+00 2.596615e-13
-7.730000e+00 2.950043e-13
-7.720000e+00 3.390076e-13
-7.710000e+00 3.898120e-13
-7.700000e+00 4.453022e-13
-7.690000e+00 5.031945e-13
-7.680000e+00 5.611317e-13
-7.670000e+00 6.167798e-13
-7.660000e+00 6.679241e-13
-7.650000e+00 7.125611e-13
-7.640000e+00 7.489812e-13
-7.630000e+00 7.758403e-13
-7.620000e+00 7.922168e-13
-7.610000e+00 7.976520e-13
-7.600000e+00 7.921712e-13
-7.590000e+00 7.762867e-13
-7.580000e+00 7.509800e-13
-7.570000e+00 7.176649e-13
-7.560000e+00 6.781337e-13
-7.550000e+00 6.344863e-13
-7.540000e+00 5.890477e-13
-7.530000e+00 5.442734e-13
-7.520000e+00 5.026507e-13
-7.510000e+00 4.665959e-13
-7.500000e+00 4.383536e-13
-7.490000e+00 4.199017e-13
-7.480000e+00 4.128656e-13
-7.470000e+00 4.184456e-13
-7.460000e+00 4.373601e-13
-7.450000e+00 4.698074e-13
-7.440000e+00 5.154474e-13
-7.430000e+00 5.734061e-13
-7.420000e+00 6.422989e-13
-7.410000e+00 7.202777e-13
-7.400000e+00 8.050956e-13
-7.390000e+00 8.941890e-13
-7.380000e+00 9.847748e-13
-7.370000e+00 1.073957e-12
-7.360000e+00 1.158842e-12
-7.350000e+00 1.236652e-12
-7.340000e+00 1.304845e-12
-7.330000e+00 1.361215e-12
-7.320000e+00 1.403996e-12
-7.310000e+00 1.431936e-12
-7.300000e+00 1.444369e-12
-7.290000e+00 1.441251e-12
-7.280000e+00 1.423180e-12
-7.270000e+00 1.391394e-12
-7.260000e+00 1.347737e-12
-7.250000e+00 1.294607e-12
-7.240000e+00 1.234877e-12
-7.230000e+00 1.171804e-12
-7.220000e+00 1.108908e-12
-7.210000e+00 1.049851e-12
-7.200000e+00 9.983026e-13
-7.190000e+00 9.577980e-13
-7.180000e+00 9.316071e-13
-7.170000e+00 9.226018e-13
-7.160000e+00 9.331410e-13
-7.150000e+00 9.649682e-13
-7.140000e+00 1.019133e-12
-7.130000e+00 1.095933e-12
-7.120000e+00 1.194888e-12
-7.110000e+00 1.314734e-12
-7.100000e+00 1.453454e-12
-7.090000e+00 1.608333e-12
-7.080000e+00 1.776040e-12
-7.070000e+00 1.952734e-12
-7.060000e+00 2.134196e-12
-7.050000e+00 2.315964e-12
-7.040000e+00 2.493498e-12
-7.030000e+00 2.662334e-12
-7.020000e+00 2.818251e-12
-7.010000e+00 2.957419e-12
-7.000000e+00 3.076553e-12
-6.990000e+00 3.173029e-12
-6.980000e+00 3.244999e-12
-6.970000e+00 3.291462e-12
-6.960000e+00 3.312318e-12
-6.950000e+00 3.308384e-12
-6.940000e+00 3.281379e-12
-6.930000e+00 3.233878e-12
-6.920000e+00 3.169230e-12
-6.910000e+00 3.091452e-12
-6.900000e+00 3.005092e-12
-6.890000e+00 2.915079e-12
-6.880000e+00 2.826545e-12
-6.870000e+00 2.744652e-12
-6.860000e+00 2.674401e-12
-6.850000e+00 2.620458e-12
-6.840000e+00 2.586977e-12
-6.830000e+00 2.577448e-12
-6.820000e+00 2.594565e-12
-6.810000e+00 2.640117e-12
-6.800000e+00 2.714918e-12
-6.790000e+00 2.818764e-12
-6.780000e+00 2.950427e-12
-6.770000e+00 3.107693e-12
-6.760000e+00 3.287429e-12
-6.750000e+00 3.485683e-12
-6.740000e+00 3.697823e-12
-6.730000e+00 3.918692e-12
-6.720000e+00 4.142795e-12
-6.710000e+00 4.364488e-12
-6.700000e+00 4.578187e-12
-6.690000e+00 4.778569e-12
-6.680000e+00 4.960769e-12
-6.670000e+00 5.120561e-12
-6.660000e+00 5.254526e-12
-6.650000e+00 5.360181e-12
-6.640000e+00 5.436083e-12
-6.630000e+00 5.481901e-12
-6.620000e+00 5.498437e-12
-6.610000e+00 5.487620e-12
-6.600000e+00 5.452451e-12
-6.590000e+00 5.396908e-12
-6.580000e+00 5.325828e-12
-6.570000e+00 5.244738e-12
-6.560000e+00 5.159677e-12
-6.550000e+00 5.076984e-12
-6.540000e+00 5.003084e-12
-6.530000e+00 4.944266e-12
-6.520000e+00 4.906455e-12
-6.510000e+00 4.895009e-12
-6.500000e+00 4.914522e-12
-6.490000e+00 4.968663e-12
-6.480000e+00 5.060033e-12
-6.470000e+00 5.190073e-12
-6.460000e+00 5.359003e-12
-6.450000e+00 5.565806e-12
-6.440000e+00 5.808259e-12
-6.430000e+00 6.082999e-12
-6.420000e+00 6.385641e-12
-6.410000e+00 6.710922e-12
-6.400000e+00 7.052886e-12
-6.390000e+00 7.405090e-12
-6.380000e+00 7.760825e-12
-6.370000e+00 8.113361e-12
-6.360000e+00 8.456180e-12
-6.350000e+00 8.783209e-12
-6.340000e+00 9.089041e-12
-6.330000e+00 9.369127e-12
-6.320000e+00 9.619944e-12
-6.310000e+00 9.839130e-12
-6.300000e+00 1.002557e-11
-6.290000e+00 1.017943e-11
-6.280000e+00 1.030220e-11
-6.270000e+00 1.039658e-11
-6.260000e+00 1.046647e-11
-6.250000e+00 1.051677e-11
-6.240000e+00 1.055324e-11
-6.230000e+00 1.058231e-11
-6.220000e+00 1.061082e-11
-6.210000e+00 1.064582e-11
-6.200000e+00 1.069428e-11
-6.190000e+00 1.076287e-11
-6.180000e+00 1.085770e-11
-6.170000e+00 1.098412e-11
-6.160000e+00 1.114649e-11
-6.150000e+00 1.134807e-11
-6.140000e+00 1.159083e-11
-6.130000e+00 1.187543e-11
-6.120000e+00 1.220116e-11
-6.110000e+00 1.256594e-11
-6.100000e+00 1.296644e-11
-6.090000e+00 1.339811e-11
-6.080000e+00 1.385538e-11
-6.070000e+00 1.433187e-11
-6.060000e+00 1.482053e-11
-6.050000e+00 1.531396e-11
-6.040000e+00 1.580462e-11
-6.030000e+00 1.628512e-11
-6.020000e+00 1.674844e-11
-6.010000e+00 1.718821e-11
-6.000000e+00 1.759891e-11
-5.990000e+00 1.797609e-11
-5.980000e+00 1.831651e-11
-5.970000e+00 1.861824e-11
-5.960000e+00 1.888078e-11
-5.950000e+00 1.910503e-11
-5.940000e+00 1.929330e-11
-5.930000e+00 1.944924e-11
-5.920000e+00 1.957769e-11
-5.910000e+00 1.968452e-11
-5.900000e+00 1.977649e-11
-5.890000e+00 1.986095e-11
-5.880000e+00 1.994566e-11
-5.870000e+00 2.003848e-11
-5.860000e+00 2.014715e-11
-5.850000e+00 2.027900e-11
-5.840000e+00 2.044074e-11
-5.830000e+00 2.063825e-11
-5.820000e+00 2.087633e-11
-5.810000e+00 2.115863e-11
-5.800000e+00 2.148751e-11
-5.790000e+00 2.186395e-11
-5.780000e+00 2.228758e-11
-5.770000e+00 2.275668e-11
-5.760000e+00 2.326828e-11
-5.750000e+00 2.381826e-11
-5.740000e+00 2.440153e-11
-5.730000e+00 2.501219e-11
-5.720000e+00 2.564379e-11
-5.710000e+00 2.628952e-11
-5.700000e+00 2.694247e-11
-5.690000e+00 2.759589e-11
-5.680000e+00 2.824339e-11
-5.670000e+00 2.887917e-11
-5.660000e+00 2.949822e-11
-5.650000e+00 3.009649e-11
-5.640000e+00 3.067100e-11
-5.630000e+00 3.121991e-11
-5.620000e+00 3.174260e-11
-5.610000e+00 3.223964e-11
-5.600000e+00 3.271277e-11
-5.590000e+00 3.316478e-11
-5.580000e+00 3.359944e-11
-5.570000e+00 3.402126e-11
-5.560000e+00 3.443543e-11
-5.550000e+00 3.484750e-11
-5.540000e+00 3.526324e-11
-5.530000e+00 3.568839e-11
-5.520000e+00 3.612847e-11
-5.510000e+00 3.658859e-11
-5.500000e+00 3.707323e-11
-5.490000e+00 3.758613e-11
-5.480000e+00 3.813012e-11
-5.470000e+00 3.870710e-11
-5.460000e+00 3.931794e-11
-5.450000e+00 3.996249e-11
-5.440000e+00 4.063960e-11
-5.430000e+00 4.134719e-11
-5.420000e+00 4.208239e-11
-5.410000e+00 4.284161e-11
-5.400000e+00 4.362076e-11
-5.390000e+00 4.441538e-11
-5.380000e+00 4.522088e-11
-5.370000e+00 4.603266e-11
-5.360000e+00 4.684639e-11
-5.350000e+00 4.765812e-11
-5.340000e+00 4.846447e-11
-5.330000e+00 4.926277e-11
-5.320000e+00 5.005114e-11
-5.310000e+00 5.082865e-11
-5.300000e+00 5.159525e-11
-5.290000e+00 5.235187e-11
-5.280000e+00 5.310034e-11
-5.270000e+00 5.384333e-11
-5.260000e+00 5.458427e-11
-5.250000e+00 5.532719e-11
-5.240000e+00 5.607663e-11
-5.230000e+00 5.683738e-11
-5.220000e+00 5.761439e-11
-5.210000e+00 5.841254e-11
-5.200000e+00 5.923646e-11
-5.190000e+00 6.009037e-11
-5.180000e+00 6.097791e-11
-5.170000e+00 6.190205e-11
-5.160000e+00 6.286492e-11
-5.150000e+00 6.386777e-11
-5.140000e+00 6.491092e-11
-5.130000e+00 6.599378e-11
-5.120000e+00 6.711482e-11
-5.110000e+00 6.827166e-11
-5.100000e+00 6.946119e-11
-5.090000e+00 7.067963e-11
-5.080000e+00 7.192272e-11
-5.070000e+00 7.318585e-11
-5.060000e+00 7.446423e-11
-5.050000e+00 7.575308e-11
-5.040000e+00 7.704779e-11
-5.030000e+00 7.834410e-11
-5.020000e+00 7.963820e-11
-5.010000e+00 8.092692e-11
-5.000000e+00 8.220781e-11
-4.990000e+00 8.347920e-11
-4.980000e+00 8.474028e-11
-4.970000e+00 8.599108e-11
-4.960000e+00 8.723248e-11
-4.950000e+00 8.846615e-11
-4.940000e+00 8.969452e-11
-4.930000e+00 9.092057e-11
-4.920000e+00 9.214784e-11
-4.910000e+00 9.338023e-11
-4.900000e+00 9.462185e-11
-4.890000e+00 9.587690e-11
-4.880000e+00 9.714949e-11
-4.870000e+00 9.844355e-11
-4.860000e+00 9.976266e-11
-4.850000e+00 1.011100e-10
-4.840000e+00 1.024881e-10
-4.830000e+00 1.038992e-10
-4.820000e+00 1.053446e-10
-4.810000e+00 1.068252e-10
-4.800000e+00 1.083411e-10
-4.790000e+00 1.098921e-10
-4.780000e+00 1.114774e-10
-4.770000e+00 1.130958e-10
-4.760000e+00 1.147459e-10
-4.750000e+00 1.164260e-10
-4.740000e+00 1.181345e-10
-4.730000e+00 1.198697e-10
-4.720000e+00 1.216304e-10
-4.710000e+00 1.234154e-10
-4.700000e+00 1.252240e-10
-4.690000e+00 1.270559e-10
-4.680000e+00 1.289114e-10
-4.670000e+00 1.307911e-10
-4.660000e+00 1.326963e-10
-4.650000e+00 1.346288e-10
-4.640000e+00 1.365905e-10
-4.630000e+00 1.385840e-10
-4.620000e+00 1.406118e-10
-4.610000e+00 1.426768e-10
-4.600000e+00 1.447815e-10
-4.590000e+00 1.469287e-10
-4.580000e+00 1.491206e-10
-4.570000e+00 1.513589e-10
-4.560000e+00 1.536451e-10
-4.550000e+00 1.559799e-10
-4.540000e+00 1.583632e-10
-4.530000e+00 1.607944e-10
-4.520000e+00 1.632720e-10
-4.510000e+00 1.657936e-10
-4.500000e+00 1.683564e-10
-4.490000e+00 1.709567e-10
-4.480000e+00 1.735904e-10
-4.470000e+00 1.762530e-10
-4.460000e+00 1.789396e-10
-4.450000e+00 1.816452e-10
-4.440000e+00 1.843651e-10
-4.430000e+00 1.870945e-10
-4.420000e+00 1.898292e-10
-4.410000e+00 1.925656e-10
-4.400000e+00 1.953006e-10
-4.390000e+00 1.980321e-10
-4.380000e+00 2.007590e-10
-4.370000e+00 2.034810e-10
-4.360000e+00 2.061990e-10
-4.350000e+00 2.089150e-10
-4.340000e+00 2.116317e-10
-4.330000e+00 2.143532e-10
-4.320000e+00 2.170840e-10
-4.310000e+00 2.198296e-10
-4.300000e+00 2.225959e-10
-4.290000e+00 2.253893e-10
-4.280000e+00 2.282162e-10
-4.270000e+00 2.310832e-10
-4.260000e+00 2.339966e-10
-4.250000e+00 2.369624e-10
-4.240000e+00 2.399859e-10
-4.230000e+00 2.430717e-10
-4.220000e+00 2.462238e-10
-4.210000e+00 2.494450e-10
-4.200000e+00 2.527372e-10
-4.190000e+00 2.561013e-10
-4.180000e+00 2.595372e-10
-4.170000e+00 2.630438e-10
-4.160000e+00 2.666191e-10
-4.150000e+00 2.702603e-10
-4.140000e+00 2.739642e-10
-4.130000e+00 2.777266e-10
-4.120000e+00 2.815436e-10
-4.110000e+00 2.854107e-10
-4.100000e+00 2.893236e-10
-4.090000e+00 2.932783e-10
-4.080000e+00 2.972712e-10
-4.070000e+00 3.012989e-10
-4.060000e+00 3.053592e-10
-4.050000e+00 3.094501e-10
-4.040000e+00 3.135707e-10
-4.030000e+00 3.177210e-10
-4.020000e+00 3.219014e-10
-4.010000e+00 3.261135e-10
-4.000000e+00 3.303594e-10
-3.990000e+00 3.346417e-10
-3.980000e+00 3.389637e-10
-3.970000e+00 3.433288e-10
-3.960000e+00 3.477405e-10
-3.950000e+00 3.522025e-10
-3.940001e+00 3.567182e-10
-3.930000e+00 3.612905e-10
-3.920000e+00 3.659219e-10
-3.910000e+00 3.706144e-10
-3.900001e+00 3.753692e-10
-3.890000e+00 3.801866e-10
-3.880000e+00 3.850662e-10
-3.870000e+00 3.900068e-10
-3.860001e+00 3.950063e-10
-3.850000e+00 4.000621e-10
-3.840000e+00 4.051707e-10
-3.830000e+00 4.103283e-10
-3.820001e+00 4.155309e-10
-3.810000e+00 4.207741e-10
-3.800000e+00 4.260537e-10
-3.790000e+00 4.313657e-10
-3.780000e+00 4.367066e-10
-3.770000e+00 4.420734e-10
-3.760000e+00 4.474639e-10
-3.750000e+00 4.528767e-10
-3.740000e+00 4.583114e-10
-3.730000e+00 4.637689e-10
-3.720000e+00 4.692509e-10
-3.710000e+00 4.747602e-10
-3.700000e+00 4.803009e-10
-3.690001e+00 4.858777e-10
-3.680000e+00 4.914963e-10
-3.670000e+00 4.971631e-10
-3.660000e+00 5.028849e-10
-3.650001e+00 5.086689e-10
-3.640000e+00 5.145220e-10
-3.630000e+00 5.204516e-10
-3.620000e+00 5.264640e-10
-3.610001e+00 5.325654e-10
-3.600000e+00 5.387609e-10
-3.590000e+00 5.450547e-10
-3.580000e+00 5.514501e-10
-3.570001e+00 5.579491e-10
-3.560000e+00 5.645523e-10
-3.550000e+00 5.712592e-10
-3.540000e+00 5.780676e-10
-3.530000e+00 5.849748e-10
-3.520000e+00 5.919766e-10
-3.510000e+00 5.990676e-10
-3.500000e+00 6.062418e-10
-3.490000e+00 6.134930e-10
-3.480000e+00 6.208140e-10
-3.470000e+00 6.281976e-10
-3.460000e+00 6.356369e-10
-3.450000e+00 6.431249e-10
-3.440001e+00 6.506556e-10
-3.430000e+00 6.582232e-10
-3.420000e+00 6.658228e-10
-3.410000e+00 6.734507e-10
-3.400001e+00 6.811043e-10
-3.390000e+00 6.887817e-10
-3.380000e+00 6.964825e-10
-3.370000e+00 7.042073e-10
-3.360001e+00 7.119579e-10
-3.350000e+00 7.197368e-10
-3.340000e+00 7.275475e-10
-3.330000e+00 7.353942e-10
-3.320001e+00 7.432815e-10
-3.310000e+00 7.512146e-10
-3.300000e+00 7.591985e-10
-3.290000e+00 7.672383e-10
-3.280000e+00 7.753391e-10
-3.270000e+00 7.835053e-10
-3.260000e+00 7.917411e-10
-3.250000e+00 8.000498e-10
-3.240000e+00 8.084343e-10
-3.230000e+00 8.168967e-10
-3.220000e+00 8.254381e-10
-3.210000e+00 8.340592e-10
-3.200000e+00 8.427599e-10
-3.190001e+00 8.515394e-10
-3.180000e+00 8.603965e-10
-3.170000e+00 8.693297e-10
-3.160000e+00 8.783372e-10
-3.150001e+00 8.874169e-10
-3.140000e+00 8.965671e-10
-3.130000e+00 9.057861e-10
-3.120000e+00 9.150722e-10
-3.110001e+00 9.244246e-10
-3.100000e+00 9.338429e-10
-3.090000e+00 9.433268e-10
-3.080000e+00 9.528768e-10
-3.070001e+00 9.624939e-10
-3.060000e+00 9.721799e-10
-3.050000e+00 9.819368e-10
-3.040000e+00 9.917666e-10
-3.030000e+00 1.001672e-09
-3.020000e+00 1.011656e-09
-3.010000e+00 1.021720e-09
-3.000000e+00 1.031868e-09
-2.990000e+00 1.042101e-09
-2.980000e+00 1.052421e-09
-2.970000e+00 1.062828e-09
-2.960000e+00 1.073324e-09
-2.950000e+00 1.083907e-09
-2.940001e+00 1.094576e-09
-2.930000e+00 1.105328e-09
-2.920000e+00 1.116161e-09
-2.910000e+00 1.127070e-09
-2.900001e+00 1.138051e-09
-2.890000e+00 1.149099e-09
-2.880000e+00 1.160208e-09
-2.870000e+00 1.171372e-09
-2.860001e+00 1.182584e-09
-2.850000e+00 1.193840e-09
-2.840000e+00 1.205132e-09
-2.830000e+00 1.216457e-09
-2.820001e+00 1.227809e-09
-2.810000e+00 1.239184e-09
-2.800000e+00 1.250579e-09
-2.790000e+00 1.261993e-09
-2.780000e+00 1.273424e-09
-2.770000e+00 1.284873e-09
-2.760000e+00 1.296340e-09
-2.750000e+00 1.307829e-09
-2.740000e+00 1.319341e-09
-2.730000e+00 1.330882e-09
-2.720000e+00 1.342454e-09
-2.710000e+00 1.354064e-09
-2.700000e+00 1.365716e-09
-2.690001e+00 1.377415e-09
-2.680000e+00 1.389165e-09
-2.670000e+00 1.400972e-09
-2.660000e+00 1.412840e-09
-2.650001e+00 1.424770e-09
-2.640000e+00 1.436766e-09
-2.630000e+00 1.448827e-09
-2.620000e+00 1.460956e-09
-2.610001e+00 1.473149e-09
-2.600000e+00 1.485405e-09
-2.590000e+00 1.497722e-09
-2.580000e+00 1.510095e-09
-2.570001e+00 1.522519e-09
-2.560000e+00 1.534989e-09
-2.550000e+00 1.547499e-09
-2.540000e+00 1.560044e-09
-2.530001e+00 1.572617e-09
-2.520000e+00 1.585214e-09
-2.510000e+00 1.597830e-09
-2.500000e+00 1.610459e-09
-2.490000e+00 1.623098e-09
-2.480000e+00 1.635745e-09
-2.470000e+00 1.648399e-09
-2.460000e+00 1.661059e-09
-2.450000e+00 1.673725e-09
-2.440001e+00 1.686399e-09
-2.430000e+00 1.699084e-09
-2.420000e+00 1.711782e-09
-2.410000e+00 1.724499e-09
-2.400001e+00 1.737238e-09
-2.390000e+00 1.750004e-09
-2.380000e+00 1.762801e-09
-2.370000e+00 1.775633e-09
-2.360001e+00 1.788503e-09
-2.350000e+00 1.801414e-09
-2.340000e+00 1.814367e-09
-2.330000e+00 1.827363e-09
-2.320001e+00 1.840400e-09
-2.310000e+00 1.853476e-09
-2.300000e+00 1.866587e-09
-2.290000e+00 1.879726e-09
-2.280001e+00 1.892888e-09
-2.270000e+00 1.906064e-09
-2.260000e+00 1.919245e-09
-2.250000e+00 1.932421e-09
-2.240000e+00 1.945581e-09
-2.230000e+00 1.958713e-09
-2.220000e+00 1.971808e-09
-2.210000e+00 1.984855e-09
-2.200000e+00 1.997843e-09
-2.190001e+00 2.010764e-09
-2.180000e+00 2.023610e-09
-2.170000e+00 2.036374e-09
-2.160000e+00 2.049051e-09
-2.150001e+00 2.061638e-09
-2.140000e+00 2.074135e-09
-2.130000e+00 2.086540e-09
-2.120000e+00 2.098857e-09
-2.110001e+00 2.111088e-09
-2.100000e+00 2.123238e-09
-2.090000e+00 2.135314e-09
-2.080000e+00 2.147322e-09
-2.070001e+00 2.159269e-09
-2.060000e+00 2.171163e-09
-2.050000e+00 2.183011e-09
-2.040000e+00 2.194819e-09
-2.030001e+00 2.206592e-09
-2.020000e+00 2.218337e-09
-2.010000e+00 2.230053e-09
-2.000000e+00 2.241744e-09
-1.990000e+00 2.253408e-09
-1.980000e+00 2.265041e-09
-1.970000e+00 2.276640e-09
-1.960000e+00 2.288198e-09
-1.950000e+00 2.299705e-09
-1.940001e+00 2.311151e-09
-1.930000e+00 2.322524e-09
-1.920000e+00 2.333811e-09
-1.910000e+00 2.344999e-09
-1.900001e+00 2.356073e-09
-1.890000e+00 2.367019e-09
-1.880000e+00 2.377823e-09
-1.870000e+00 2.388472e-09
-1.860001e+00 2.398953e-09
-1.850000e+00 2.409256e-09
-1.840000e+00 2.419372e-09
-1.830000e+00 2.429295e-09
-1.820001e+00 2.439018e-09
-1.810000e+00 2.448538e-09
-1.800000e+00 2.457856e-09
-1.790000e+00 2.466971e-09
-1.780001e+00 2.475886e-09
-1.770000e+00 2.484605e-09
-1.760000e+00 2.493134e-09
-1.750000e+00 2.501478e-09
-1.740000e+00 2.509645e-09
-1.730000e+00 2.517641e-09
-1.720000e+00 2.525471e-09
-1.710000e+00 2.533143e-09
-1.700000e+00 2.540660e-09
-1.690001e+00 2.548024e-09
-1.680000e+00 2.555236e-09
-1.670000e+00 2.562296e-09
-1.660000e+00 2.569200e-09
-1.650001e+00 2.575942e-09
-1.640000e+00 2.582513e-09
-1.630000e+00 2.588903e-09
-1.620000e+00 2.595100e-09
-1.610001e+00 2.601089e-09
-1.600000e+00 2.606854e-09
-1.590000e+00 2.612377e-09
-1.580000e+00 2.617641e-09
-1.570001e+00 2.622628e-09
-1.560000e+00 2.627318e-09
-1.550000e+00 2.631694e-09
-1.540000e+00 2.635740e-09
-1.530001e+00 2.639439e-09
-1.520000e+00 2.642779e-09
-1.510000e+00 2.645748e-09
-1.500000e+00 2.648337e-09
-1.490000e+00 2.650538e-09
-1.480000e+00 2.652348e-09
-1.470000e+00 2.653765e-09
-1.460000e+00 2.654788e-09
-1.450000e+00 2.655421e-09
-1.440001e+00 2.655667e-09
-1.430000e+00 2.655533e-09
-1.420000e+00 2.655026e-09
-1.410000e+00 2.654152e-09
-1.400001e+00 2.652919e-09
-1.390000e+00 2.651335e-09
-1.380000e+00 2.649406e-09
-1.370000e+00 2.647137e-09
-1.360001e+00 2.644531e-09
-1.350000e+00 2.641590e-09
-1.340000e+00 2.638313e-09
-1.330000e+00 2.634696e-09
-1.320001e+00 2.630734e-09
-1.310000e+00 2.626417e-09
-1.300000e+00 2.621734e-09
-1.290000e+00 2.616672e-09
-1.280001e+00 2.611215e-09
-1.270000e+00 2.605344e-09
-1.260000e+00 2.599041e-09
-1.250000e+00 2.592284e-09
-1.240000e+00 2.585053e-09
-1.230000e+00 2.577326e-09
-1.220000e+00 2.569083e-09
-1.210000e+00 2.560303e-09
-1.200000e+00 2.550967e-09
-1.190001e+00 2.541056e-09
-1.180000e+00 2.530556e-09
-1.170000e+00 2.519453e-09
-1.160000e+00 2.507735e-09
-1.150001e+00 2.495393e-09
-1.140000e+00 2.482419e-09
-1.130000e+00 2.468809e-09
-1.120000e+00 2.454560e-09
-1.110001e+00 2.439671e-09
-1.100000e+00 2.424142e-09
-1.090000e+00 2.407974e-09
-1.080000e+00 2.391169e-09
-1.070001e+00 2.373729e-09
-1.060000e+00 2.355655e-09
-1.050000e+00 2.336949e-09
-1.040000e+00 2.317609e-09
-1.030001e+00 2.297636e-09
-1.020000e+00 2.277025e-09
-1.010000e+00 2.255772e-09
-1.000000e+00 2.233868e-09
-9.899998e-01 2.211305e-09
-9.800005e-01 2.188071e-09