-1.200000e+01 0.000000e+00
-1.199000e+01 0.000000e+00
-1.198000e+01 0.000000e+00
-1.197000e+01 0.000000e+00
-1.196000e+01 0.000000e+00
-1.195000e+01 0.000000e+00
-1.194000e+01 0.000000e+00
-1.193000e+01 -1.026230e-38
-1.192000e+01 -1.604972e-37
-1.191000e+01 -1.343175e-36
-1.190000e+01 -7.985058e-36
-1.189000e+01 -3.778785e-35
-1.188000e+01 -1.513033e-34
-1.187000e+01 -5.322384e-34
-1.186000e+01 -1.686934e-33
-1.185000e+01 -4.904889e-33
-1.184000e+01 -1.325832e-32
-1.183000e+01 -3.365955e-32
-1.182000e+01 -8.090393e-32
-1.181000e+01 -1.852946e-31
-1.180000e+01 -4.065026e-31
-1.179000e+01 -8.579345e-31
-1.178000e+01 -1.748288e-30
-1.177000e+01 -3.450457e-30
-1.176000e+01 -6.612842e-30
-1.175000e+01 -1.233484e-29
-1.174000e+01 -2.243727e-29
-1.173000e+01 -3.987009e-29
-1.172000e+01 -6.931471e-29
-1.171000e+01 -1.180562e-28
-1.170000e+01 -1.972229e-28
-1.169000e+01 -3.235155e-28
-1.168000e+01 -5.215766e-28
-1.167000e+01 -8.271822e-28
-1.166000e+01 -1.291464e-27
-1.165000e+01 -1.986404e-27
-1.164000e+01 -3.011857e-27
-1.163000e+01 -4.504377e-27
-1.162000e+01 -6.648111e-27
-1.161000e+01 -9.687995e-27
-1.160000e+01 -1.394544e-26
-1.159000e+01 -1.983657e-26
-1.158000e+01 -2.789300e-26
-1.157000e+01 -3.878483e-26
-1.156000e+01 -5.334544e-26
-1.155000e+01 -7.259716e-26
-1.154000e+01 -9.777667e-26
-1.153000e+01 -1.303585e-25
-1.152000e+01 -1.720748e-25
-1.151000e+01 -2.249275e-25
-1.150000e+01 -2.911923e-25
-1.149000e+01 -3.734077e-25
-1.148000e+01 -4.743475e-25
-1.147000e+01 -5.969717e-25
-1.146000e+01 -7.443508e-25
-1.145000e+01 -9.195604e-25
-1.144000e+01 -1.125542e-24
-1.143000e+01 -1.364924e-24
-1.142000e+01 -1.639810e-24
-1.141000e+01 -1.951525e-24
-1.140000e+01 -2.300321e-24
-1.139000e+01 -2.685060e-24
-1.138000e+01 -3.102869e-24
-1.137000e+01 -3.548780e-24
-1.136000e+01 -4.015382e-24
-1.135000e+01 -4.492487e-24
-1.134000e+01 -4.966847e-24
-1.133000e+01 -5.421936e-24
-1.132000e+01 -5.837837e-24
-1.131000e+01 -6.191256e-24
-1.130000e+01 -6.455693e-24
-1.129000e+01 -6.601803e-24
-1.128000e+01 -6.597966e-24
-1.127000e+01 -6.411097e-24
-1.126000e+01 -6.007690e-24
-1.125000e+01 -5.355112e-24
-1.124000e+01 -4.423129e-24
-1.123000e+01 -3.185631e-24
-1.122000e+01 -1.622538e-24
-1.121000e+01 2.782087e-25
-1.120000e+01 2.518617e-24
-1.119000e+01 5.088684e-24
-1.118000e+01 7.964608e-24
-1.117000e+01 1.110730e-23
-1.116000e+01 1.446129e-23
-1.115000e+01 1.795424e-23
-1.114000e+01 2.149701e-23
-1.113000e+01 2.498462e-23
-1.112000e+01 2.829796e-23
-1.111000e+01 3.130648e-23
-1.110000e+01 3.387172e-23
-1.109000e+01 3.585177e-23
-1.108000e+01 3.710649e-23
-1.107000e+01 3.750335e-23
-1.106000e+01 3.692369e-23
-1.105000e+01 3.526916e-23
-1.104000e+01 3.246792e-23
-1.103000e+01 2.848039e-23
-1.102000e+01 2.330400e-23
-1.101000e+01 1.697669e-23
-1.100000e+01 9.578629e-24
-1.099000e+01 1.231952e-24
-1.098000e+01 -7.901820e-24
-1.097000e+01 -1.762685e-23
-1.096000e+01 -2.772058e-23
-1.095000e+01 -3.794366e-23
-1.094000e+01 -4.805212e-23
-1.093000e+01 -5.781102e-23
-1.092000e+01 -6.700913e-23
-1.091000e+01 -7.547375e-23
-1.090000e+01 -8.308450e-23
-1.089000e+01 -8.978509e-23
-1.088000e+01 -9.559180e-23
-1.087000e+01 -1.005973e-22
-1.086000e+01 -1.049686e-22
-1.085000e+01 -1.089388e-22
-1.084000e+01 -1.127901e-22
-1.083000e+01 -1.168298e-22
-1.082000e+01 -1.213579e-22
-1.081000e+01 -1.266268e-22
-1.080000e+01 -1.327955e-22
-1.079000e+01 -1.398780e-22
-1.078000e+01 -1.476907e-22
-1.077000e+01 -1.558006e-22
-1.076000e+01 -1.634783e-22
-1.075000e+01 -1.696602e-22
-1.074000e+01 -1.729246e-22
-1.073000e+01 -1.714867e-22
-1.072000e+01 -1.632166e-22
-1.071000e+01 -1.456852e-22
-1.070000e+01 -1.162413e-22
-1.069000e+01 -7.212252e-23
-1.068000e+01 -1.060014e-23
-1.067000e+01 7.084098e-23
-1.066000e+01 1.742925e-22
-1.065000e+01 3.011865e-22
-1.064000e+01 4.520417e-22
-1.063000e+01 6.262014e-22
-1.062000e+01 8.215782e-22
-1.061000e+01 1.034417e-21
-1.060000e+01 1.259099e-21
-1.059000e+01 1.487996e-21
-1.058000e+01 1.711407e-21
-1.057000e+01 1.917580e-21
-1.056000e+01 2.092858e-21
-1.055000e+01 2.221933e-21
-1.054000e+01 2.288257e-21
-1.053000e+01 2.274585e-21
-1.052000e+01 2.163665e-21
-1.051000e+01 1.939072e-21
-1.050000e+01 1.586154e-21
-1.049000e+01 1.093091e-21
-1.048000e+01 4.520077e-22
-1.047000e+01 -3.398813e-22
-1.046000e+01 -1.279155e-21
-1.045000e+01 -2.355156e-21
-1.044000e+01 -3.549103e-21
-1.043000e+01 -4.833426e-21
-1.042000e+01 -6.171383e-21
-1.041000e+01 -7.517035e-21
-1.040000e+01 -8.815626e-21
-1.039000e+01 -1.000444e-20
-1.038000e+01 -1.101418e-20
-1.037000e+01 -1.177080e-20
-1.036000e+01 -1.219803e-20
-1.035000e+01 -1.222019e-20
-1.034000e+01 -1.176569e-20
-1.033000e+01 -1.077071e-20
-1.032000e+01 -9.183319e-21
-1.031000e+01 -6.967602e-21
-1.030000e+01 -4.107835e-21
-1.029000e+01 -6.124202e-22
-1.028000e+01 3.482618e-21
-1.027000e+01 8.110758e-21
-1.026000e+01 1.317299e-20
-1.025000e+01 1.853690e-20
-1.024000e+01 2.403704e-20
-1.023000e+01 2.947681e-20
-1.022000e+01 3.463183e-20
-1.021000e+01 3.925513e-20
-1.020000e+01 4.308394e-20
-1.019000e+01 4.584824e-20
-1.018000e+01 4.728074e-20
-1.017000e+01 4.712830e-20
-1.016000e+01 4.516428e-20
-1.015000e+01 4.120167e-20
-1.014000e+01 3.510624e-20
-1.013000e+01 2.680949e-20
-1.012000e+01 1.632065e-20
-1.011000e+01 3.737013e-21
-1.010000e+01 -1.074780e-20
-1.009000e+01 -2.683851e-20
-1.008000e+01 -4.413629e-20
-1.007000e+01 -6.214080e-20
-1.006000e+01 -8.025673e-20
-1.005000e+01 -9.780498e-20
-1.004000e+01 -1.140388e-19
-1.003000e+01 -1.281647e-19
-1.002000e+01 -1.393679e-19
-1.001000e+01 -1.468421e-19
-1.000000e+01 -1.498228e-19
-9.990000e+00 -1.476221e-19
-9.980000e+00 -1.396665e-19
-9.970000e+00 -1.255333e-19
-9.960000e+00 -1.049866e-19
-9.950000e+00 -7.800886e-20
-9.940001e+00 -4.482928e-20
-9.930000e+00 -5.944315e-21
-9.920000e+00 3.786923e-20
-9.910000e+00 8.555097e-20
-9.900000e+00 1.357645e-19
-9.890000e+00 1.869173e-19
-9.880000e+00 2.371920e-19
-9.870000e+00 2.845918e-19
-9.860001e+00 3.269971e-19
-9.850000e+00 3.622341e-19
-9.840000e+00 3.881532e-19
-9.830000e+00 4.027154e-19
-9.820000e+00 4.040847e-19
-9.809999e+00 3.907221e-19
-9.800000e+00 3.614792e-19
-9.790000e+00 3.156865e-19
-9.780000e+00 2.532329e-19
-9.770000e+00 1.746317e-19
-9.760000e+00 8.107025e-20
-9.750000e+00 -2.556264e-20
-9.740000e+00 -1.426728e-19
-9.730000e+00 -2.669845e-19
-9.720000e+00 -3.945933e-19
-9.710000e+00 -5.210494e-19
-9.700000e+00 -6.414709e-19
-9.690001e+00 -7.506866e-19
-9.680000e+00 -8.434045e-19
-9.670000e+00 -9.144035e-19
-9.660000e+00 -9.587420e-19
-9.650000e+00 -9.719784e-19
-9.640000e+00 -9.503938e-19
-9.630000e+00 -8.912114e-19
-9.620000e+00 -7.928001e-19
-9.610001e+00 -6.548570e-19
-9.600000e+00 -4.785554e-19
-9.590000e+00 -2.666512e-19
-9.580000e+00 -2.353952e-20
-9.570000e+00 2.447471e-19
-9.559999e+00 5.306035e-19
-9.550000e+00 8.249840e-19
-9.540000e+00 1.117603e-18
-9.530000e+00 1.397205e-18
-9.520000e+00 1.651897e-18
-9.510000e+00 1.869539e-18
-9.500000e+00 2.038182e-18
-9.490000e+00 2.146547e-18
-9.480000e+00 2.184517e-18
-9.470000e+00 2.143641e-18
-9.460000e+00 2.017618e-18
-9.450000e+00 1.802750e-18
-9.440001e+00 1.498335e-18
-9.430000e+00 1.106994e-18
-9.420000e+00 6.348899e-19
-9.410000e+00 9.184153e-20
-9.400000e+00 -5.086896e-19
-9.390000e+00 -1.149756e-18
-9.380000e+00 -1.811224e-18
-9.370000e+00 -2.470227e-18
-9.360001e+00 -3.101757e-18
-9.350000e+00 -3.679400e-18
-9.340000e+00 -4.176190e-18
-9.330000e+00 -4.565564e-18
-9.320000e+00 -4.822392e-18
-9.309999e+00 -4.924046e-18
-9.300000e+00 -4.851483e-18
-9.290000e+00 -4.590282e-18
-9.280000e+00 -4.131619e-18
-9.270000e+00 -3.473113e-18
-9.260000e+00 -2.619515e-18
-9.250000e+00 -1.583197e-18
-9.240000e+00 -3.844046e-19
-9.230000e+00 9.487615e-19
-9.220000e+00 2.380647e-18
-9.210000e+00 3.868653e-18
-9.200000e+00 5.364155e-18
-9.190001e+00 6.813715e-18
-9.180000e+00 8.160588e-18
-9.170000e+00 9.346463e-18
-9.160000e+00 1.031343e-17
-9.150000e+00 1.100611e-17
-9.140000e+00 1.137382e-17
-9.130000e+00 1.137284e-17
-9.120000e+00 1.096859e-17
-9.110001e+00 1.013759e-17
-9.100000e+00 8.869362e-18
-9.090000e+00 7.167820e-18
-9.080000e+00 5.052436e-18
-9.070000e+00 2.558860e-18
-9.060000e+00 -2.609580e-19
-9.050000e+00 -3.339201e-18
-9.040000e+00 -6.593228e-18
-9.030000e+00 -9.927208e-18
-9.020000e+00 -1.323435e-17
-9.010000e+00 -1.639972e-17
-9.000000e+00 -1.930349e-17
-8.990000e+00 -2.182471e-17
-8.980000e+00 -2.384536e-17
-8.970000e+00 -2.525458e-17
-8.960000e+00 -2.595310e-17
-8.950000e+00 -2.585742e-17
-8.940001e+00 -2.490400e-17
-8.930000e+00 -2.305282e-17
-8.920000e+00 -2.029066e-17
-8.910000e+00 -1.663351e-17
-8.900000e+00 -1.212825e-17
-8.890000e+00 -6.853417e-18
-8.880000e+00 -9.189190e-19
-8.870000e+00 5.535324e-18
-8.860001e+00 1.234183e-17
-8.850000e+00 1.930912e-17
-8.840000e+00 2.622633e-17
-8.830000e+00 3.286876e-17
-8.820000e+00 3.900435e-17
-8.810000e+00 4.440072e-17
-8.800000e+00 4.883277e-17
-8.790000e+00 5.209054e-17
-8.780000e+00 5.398704e-17
-8.770000e+00 5.436589e-17
-8.760000e+00 5.310835e-17
-8.750000e+00 5.013967e-17
-8.740000e+00 4.543431e-17
-8.730000e+00 3.901993e-17
-8.720000e+00 3.097984e-17
-8.710000e+00 2.145379e-17
-8.700000e+00 1.063702e-17
-8.690001e+00 -1.222591e-18
-8.680000e+00 -1.382929e-17
-8.670000e+00 -2.684592e-17
-8.660000e+00 -3.990226e-17
-8.650000e+00 -5.260473e-17
-8.640000e+00 -6.454754e-17
-8.630000e+00 -7.532479e-17
-8.620000e+00 -8.454319e-17
-8.610001e+00 -9.183510e-17
-8.600000e+00 -9.687155e-17
-8.590000e+00 -9.937448e-17
-8.580000e+00 -9.912825e-17
-8.570000e+00 -9.598956e-17
-8.560000e+00 -8.989569e-17
-8.550000e+00 -8.087059e-17
-8.540000e+00 -6.902850e-17
-8.530000e+00 -5.457491e-17
-8.520000e+00 -3.780472e-17
-8.510000e+00 -1.909751e-17
-8.500000e+00 1.090125e-18
-8.490000e+00 2.223491e-17
-8.480000e+00 4.375984e-17
-8.470000e+00 6.504938e-17
-8.460000e+00 8.546650e-17
-8.450000e+00 1.043711e-16
-8.440001e+00 1.211395e-16
-8.430000e+00 1.351839e-16
-8.420000e+00 1.459719e-16
-8.410000e+00 1.530451e-16
-8.400000e+00 1.560357e-16
-8.390000e+00 1.546818e-16
-8.380000e+00 1.488395e-16
-8.370000e+00 1.384920e-16
-8.360001e+00 1.237553e-16
-8.350000e+00 1.048803e-16
-8.340000e+00 8.225039e-17
-8.330000e+00 5.637553e-17
-8.320000e+00 2.788203e-17
-8.310000e+00 -2.501287e-18
-8.300000e+00 -3.396067e-17
-8.290000e+00 -6.561795e-17
-8.280000e+00 -9.655372e-17
-8.270000e+00 -1.258326e-16
-8.260000e+00 -1.525296e-16
-8.250000e+00 -1.757574e-16
-8.240000e+00 -1.946932e-16
-8.230000e+00 -2.086047e-16
-8.220000e+00 -2.168746e-16
-8.210000e+00 -2.190221e-16
-8.200000e+00 -2.147221e-16
-8.190001e+00 -2.038202e-16
-8.180000e+00 -1.863436e-16
-8.170000e+00 -1.625075e-16
-8.160000e+00 -1.327165e-16
-8.150000e+00 -9.756143e-17
-8.140000e+00 -5.781079e-17
-8.130000e+00 -1.439715e-17
-8.120000e+00 3.160064e-17
-8.110001e+00 7.897994e-17
-8.100000e+00 1.264406e-16
-8.090000e+00 1.726145e-16
-8.080000e+00 2.160979e-16
-8.070000e+00 2.554857e-16
-8.060000e+00 2.894073e-16
-8.050000e+00 3.165628e-16
-8.040000e+00 3.357588e-16
-8.030000e+00 3.459436e-16
-8.020000e+00 3.462408e-16
-8.010000e+00 3.359799e-16
-8.000000e+00 3.147244e-16
-7.990000e+00 2.822956e-16
-7.980000e+00 2.387930e-16
-7.970000e+00 1.846084e-16
-7.960000e+00 1.204359e-16
-7.950000e+00 4.727588e-17
-7.940000e+00 -3.356822e-17
-7.930000e+00 -1.204981e-16
-7.920000e+00 -2.116367e-16
-7.910000e+00 -3.048508e-16
-7.900000e+00 -3.977806e-16
-7.890000e+00 -4.878769e-16
-7.880000e+00 -5.724450e-16
-7.870000e+00 -6.486949e-16
-7.860000e+00 -7.137996e-16
-7.850000e+00 -7.649579e-16
-7.840000e+00 -7.994635e-16
-7.830000e+00 -8.147788e-16
-7.820000e+00 -8.086119e-16
-7.810000e+00 -7.789959e-16
-7.800000e+00 -7.243696e-16
-7.790000e+00 -6.436566e-16
-7.780000e+00 -5.363421e-16
-7.770000e+00 -4.025433e-16
-7.760000e+00 -2.430745e-16
-7.750000e+00 -5.949962e-17
-7.740000e+00 1.458262e-16
-7.730000e+00 3.697314e-16
-7.720000e+00 6.082204e-16
-7.710000e+00 8.564869e-16
-7.700000e+00 1.108950e-15
-7.690000e+00 1.359313e-15
-7.680000e+00 1.600656e-15
-7.670000e+00 1.825541e-15
-7.660000e+00 2.026162e-15
-7.650000e+00 2.194507e-15
-7.640000e+00 2.322552e-15
-7.630000e+00 2.402480e-15
-7.620000e+00 2.426912e-15
-7.610000e+00 2.389157e-15
-7.600000e+00 2.283475e-15
-7.590000e+00 2.105334e-15
-7.580000e+00 1.851670e-15
-7.570000e+00 1.521131e-15
-7.560000e+00 1.114300e-15
-7.550000e+00 6.338940e-16
-7.540000e+00 8.491159e-17
-7.530000e+00 -5.252557e-16
-7.520000e+00 -1.186774e-15
-7.510000e+00 -1.887381e-15
-7.500000e+00 -2.612472e-15
-7.490000e+00 -3.345255e-15
-7.480000e+00 -4.066997e-15
-7.470000e+00 -4.757337e-15
-7.460000e+00 -5.394687e-15
-7.450000e+00 -5.956709e-15
-7.440000e+00 -6.420856e-15
-7.430000e+00 -6.764975e-15
-7.420000e+00 -6.967963e-15
-7.410000e+00 -7.010457e-15
-7.400000e+00 -6.875533e-15
-7.390000e+00 -6.549418e-15
-7.380000e+00 -6.022165e-15
-7.370000e+00 -5.288299e-15
-7.360000e+00 -4.347390e-15
-7.350000e+00 -3.204531e-15
-7.340000e+00 -1.870715e-15
-7.330000e+00 -3.630744e-16
-7.320000e+00 1.295028e-15
-7.310000e+00 3.074081e-15
-7.300000e+00 4.938676e-15
-7.290000e+00 6.847959e-15
-7.280000e+00 8.756261e-15
-7.270000e+00 1.061392e-14
-7.260000e+00 1.236831e-14
-7.250000e+00 1.396499e-14
-7.240000e+00 1.534901e-14
-7.230000e+00 1.646644e-14
-7.220000e+00 1.726580e-14
-7.210000e+00 1.769972e-14
-7.200000e+00 1.772656e-14
-7.190000e+00 1.731192e-14
-7.180000e+00 1.643022e-14
-7.170000e+00 1.506603e-14
-7.160000e+00 1.321529e-14
-7.150000e+00 1.088631e-14
-7.140000e+00 8.100483e-15
-7.130000e+00 4.892695e-15
-7.120000e+00 1.311442e-15
-7.110000e+00 -2.581469e-15
-7.100000e+00 -6.711567e-15
-7.090000e+00 -1.099276e-14
-7.080000e+00 -1.532879e-14
-7.070000e+00 -1.961501e-14
-7.060000e+00 -2.374054e-14
-7.050000e+00 -2.759078e-14
-7.040000e+00 -3.105010e-14
-7.030000e+00 -3.400482e-14
-7.020000e+00 -3.634627e-14
-7.010000e+00 -3.797400e-14
-7.000000e+00 -3.879886e-14
-6.990000e+00 -3.874609e-14
-6.980000e+00 -3.775816e-14
-6.970000e+00 -3.579736e-14
-6.960000e+00 -3.284800e-14
-6.950000e+00 -2.891816e-14
-6.940000e+00 -2.404101e-14
-6.930000e+00 -1.827538e-14
-6.920000e+00 -1.170589e-14
-6.910000e+00 -4.442244e-15
-6.900000e+00 3.382073e-15
-6.890000e+00 1.161181e-14
-6.880000e+00 2.007265e-14
-6.870000e+00 2.857457e-14
-6.860000e+00 3.691574e-14
-6.850000e+00 4.488699e-14
-6.840000e+00 5.227666e-14
-6.830000e+00 5.887580e-14
-6.820000e+00 6.448353e-14
-6.810000e+00 6.891250e-14
-6.800000e+00 7.199423e-14
-6.790000e+00 7.358431e-14
-6.780000e+00 7.356711e-14
-6.770000e+00 7.186014e-14
-6.760000e+00 6.841764e-14
-6.750000e+00 6.323345e-14
-6.740000e+00 5.634302e-14
-6.730000e+00 4.782447e-14
-6.720000e+00 3.779855e-14
-6.710000e+00 2.642762e-14
-6.700000e+00 1.391345e-14
-6.690000e+00 4.939756e-16
-6.680000e+00 -1.356096e-14
-6.670000e+00 -2.795488e-14
-6.660000e+00 -4.237083e-14
-6.650000e+00 -5.647825e-14
-6.640000e+00 -6.994047e-14
-6.630000e+00 -8.242266e-14
-6.620000e+00 -9.359999e-14
-6.610000e+00 -1.031659e-13
-6.600000e+00 -1.108401e-13
-6.590000e+00 -1.163764e-13
-6.580000e+00 -1.195699e-13
-6.570000e+00 -1.202630e-13
-6.560000e+00 -1.183511e-13
-6.550000e+00 -1.137871e-13
-6.540000e+00 -1.065837e-13
-6.530000e+00 -9.681582e-14
-6.520000e+00 -8.462013e-14
-6.510000e+00 -7.019400e-14
-6.500000e+00 -5.379252e-14
-6.490000e+00 -3.572410e-14
-6.480000e+00 -1.634467e-14
-6.470000e+00 3.949499e-15
-6.460000e+00 2.473011e-14
-6.450000e+00 4.554614e-14
-6.440000e+00 6.593405e-14
-6.430000e+00 8.542841e-14
-6.420000e+00 1.035729e-13
-6.410000e+00 1.199315e-13
-6.400000e+00 1.340992e-13
-6.390000e+00 1.457124e-13
-6.380000e+00 1.544584e-13
-6.370000e+00 1.600842e-13
-6.360000e+00 1.624034e-13
-6.350000e+00 1.613025e-13
-6.340000e+00 1.567450e-13
-6.330000e+00 1.487736e-13
-6.320000e+00 1.375110e-13
-6.310000e+00 1.231587e-13
-6.300000e+00 1.059932e-13
-6.290000e+00 8.636160e-14
-6.280000e+00 6.467414e-14
-6.270000e+00 4.139576e-14
-6.260000e+00 1.703604e-14
-6.250000e+00 -7.862135e-15
-6.240000e+00 -3.273496e-14
-6.230000e+00 -5.701074e-14
-6.220000e+00 -8.012345e-14
-6.210000e+00 -1.015263e-13
-6.200000e+00 -1.207053e-13
-6.190000e+00 -1.371919e-13
-6.180000e+00 -1.505753e-13
-6.170000e+00 -1.605130e-13
-6.160000e+00 -1.667407e-13
-6.150000e+00 -1.690798e-13
-6.140000e+00 -1.674432e-13
-6.130000e+00 -1.618396e-13
-6.120000e+00 -1.523749e-13
-6.110000e+00 -1.392519e-13
-6.100000e+00 -1.227672e-13
-6.090000e+00 -1.033065e-13
-6.080000e+00 -8.133762e-14
-6.070000e+00 -5.740113e-14
-6.060000e+00 -3.209953e-14
-6.050000e+00 -6.084876e-15
-6.040000e+00 1.995508e-14
-6.030000e+00 4.531165e-14
-6.020000e+00 6.927066e-14
-6.010000e+00 9.112822e-14
-6.000000e+00 1.102066e-13
-5.990000e+00 1.258693e-13
-5.980000e+00 1.375363e-13
-5.970000e+00 1.446968e-13
-5.960000e+00 1.469223e-13
-5.950000e+00 1.438761e-13
-5.940000e+00 1.353226e-13
-5.930000e+00 1.211333e-13
-5.920000e+00 1.012910e-13
-5.910000e+00 7.589127e-14
-5.900000e+00 4.514144e-14
-5.890000e+00 9.357460e-15
-5.880000e+00 -3.104217e-14
-5.870000e+00 -7.554461e-14
-5.860000e+00 -1.235531e-13
-5.850000e+00 -1.743995e-13
-5.840000e+00 -2.273583e-13
-5.830000e+00 -2.816624e-13
-5.820000e+00 -3.365194e-13
-5.810000e+00 -3.911297e-13
-5.800000e+00 -4.447038e-13
-5.790000e+00 -4.964802e-13
-5.780000e+00 -5.457428e-13
-5.770000e+00 -5.918371e-13
-5.760000e+00 -6.341858e-13
-5.750000e+00 -6.723025e-13
-5.740000e+00 -7.058032e-13
-5.730000e+00 -7.344159e-13
-5.720000e+00 -7.579881e-13
-5.710000e+00 -7.764910e-13
-5.700000e+00 -7.900212e-13
-5.690000e+00 -7.987997e-13
-5.680000e+00 -8.031678e-13
-5.670000e+00 -8.035803e-13
-5.660000e+00 -8.005958e-13
-5.650000e+00 -7.948648e-13
-5.640000e+00 -7.871147e-13
-5.630000e+00 -7.781346e-13
-5.620000e+00 -7.687558e-13
-5.610000e+00 -7.598337e-13
-5.600000e+00 -7.522268e-13
-5.590000e+00 -7.467767e-13
-5.580000e+00 -7.442873e-13
-5.570000e+00 -7.455053e-13
-5.560000e+00 -7.511012e-13
-5.550000e+00 -7.616521e-13
-5.540000e+00 -7.776267e-13
-5.530000e+00 -7.993719e-13
-5.520000e+00 -8.271036e-13
-5.510000e+00 -8.608982e-13
-5.500000e+00 -9.006901e-13
-5.490000e+00 -9.462703e-13
-5.480000e+00 -9.972899e-13
-5.470000e+00 -1.053267e-12
-5.460000e+00 -1.113596e-12
-5.450000e+00 -1.177560e-12
-5.440000e+00 -1.244351e-12
-5.430000e+00 -1.313082e-12
-5.420000e+00 -1.382815e-12
-5.410000e+00 -1.452578e-12
-5.400000e+00 -1.521394e-12
-5.390000e+00 -1.588303e-12
-5.380000e+00 -1.652384e-12
-5.370000e+00 -1.712787e-12
-5.360000e+00 -1.768748e-12
-5.350000e+00 -1.819615e-12
-5.340000e+00 -1.864864e-12
-5.330000e+00 -1.904117e-12
-5.320000e+00 -1.937154e-12
-5.310000e+00 -1.963922e-12
-5.300000e+00 -1.984537e-12
-5.290000e+00 -1.999292e-12
-5.280000e+00 -2.008643e-12
-5.270000e+00 -2.013209e-12
-5.260000e+00 -2.013758e-12
-5.250000e+00 -2.011186e-12
-5.240000e+00 -2.006505e-12
-5.230000e+00 -2.000811e-12
-5.220000e+00 -1.995267e-12
-5.210000e+00 -1.991069e-12
-5.200000e+00 -1.989418e-12
-5.190000e+00 -1.991494e-12
-5.180000e+00 -1.998419e-12
-5.170000e+00 -2.011237e-12
-5.160000e+00 -2.030880e-12
-5.150000e+00 -2.058147e-12
-5.140000e+00 -2.093680e-12
-5.130000e+00 -2.137950e-12
-5.120000e+00 -2.191238e-12
-5.110000e+00 -2.253630e-12
-5.100000e+00 -2.325011e-12
-5.090000e+00 -2.405067e-12
-5.080000e+00 -2.493291e-12
-5.070000e+00 -2.588992e-12
-5.060000e+00 -2.691313e-12
-5.050000e+00 -2.799252e-12
-5.040000e+00 -2.911685e-12
-5.030000e+00 -3.027393e-12
-5.020000e+00 -3.145094e-12
-5.010000e+00 -3.263473e-12
-5.000000e+00 -3.381219e-12
-4.990000e+00 -3.497052e-12
-4.980000e+00 -3.609763e-12
-4.970000e+00 -3.718239e-12
-4.960000e+00 -3.821496e-12
-4.950000e+00 -3.918700e-12
-4.940000e+00 -4.009192e-12
-4.930000e+00 -4.092508e-12
-4.920000e+00 -4.168383e-12
-4.910000e+00 -4.236764e-12
-4.900000e+00 -4.297811e-12
-4.890000e+00 -4.351892e-12
-4.880000e+00 -4.399576e-12
-4.870000e+00 -4.441617e-12
-4.860000e+00 -4.478936e-12
-4.850000e+00 -4.512598e-12
-4.840000e+00 -4.543786e-12
-4.830000e+00 -4.573773e-12
-4.820000e+00 -4.603891e-12
-4.810000e+00 -4.635496e-12
-4.800000e+00 -4.669941e-12
-4.790000e+00 -4.708540e-12
-4.780000e+00 -4.752543e-12
-4.770000e+00 -4.803106e-12
-4.760000e+00 -4.861264e-12
-4.750000e+00 -4.927914e-12
-4.740000e+00 -5.003801e-12
-4.730000e+00 -5.089496e-12
-4.720000e+00 -5.185400e-12
-4.710000e+00 -5.291734e-12
-4.700000e+00 -5.408545e-12
-4.690000e+00 -5.535708e-12
-4.680000e+00 -5.672944e-12
-4.670000e+00 -5.819826e-12
-4.660000e+00 -5.975805e-12
-4.650000e+00 -6.140223e-12
-4.640000e+00 -6.312338e-12
-4.630000e+00 -6.491347e-12
-4.620000e+00 -6.676409e-12
-4.610000e+00 -6.866665e-12
-4.600000e+00 -7.061263e-12
-4.590000e+00 -7.259375e-12
-4.580000e+00 -7.460216e-12
-4.570000e+00 -7.663055e-12
-4.560000e+00 -7.867229e-12
-4.550000e+00 -8.072151e-12
-4.540000e+00 -8.277314e-12
-4.530000e+00 -8.482288e-12
-4.520000e+00 -8.686725e-12
-4.510000e+00 -8.890349e-12
-4.500000e+00 -9.092951e-12
-4.490000e+00 -9.294378e-12
-4.480000e+00 -9.494526e-12
-4.470000e+00 -9.693323e-12
-4.460000e+00 -9.890724e-12
-4.450000e+00 -1.008670e-11
-4.440000e+00 -1.028122e-11
-4.430000e+00 -1.047426e-11
-4.420000e+00 -1.066578e-11
-4.410000e+00 -1.085574e-11
-4.400000e+00 -1.104408e-11
-4.390000e+00 -1.123074e-11
-4.380000e+00 -1.141567e-11
-4.370000e+00 -1.159880e-11
-4.360000e+00 -1.178012e-11
-4.350000e+00 -1.195964e-11
-4.340000e+00 -1.213741e-11
-4.330000e+00 -1.231355e-11
-4.320000e+00 -1.248830e-11
-4.310000e+00 -1.266195e-11
-4.300000e+00 -1.283494e-11
-4.290000e+00 -1.300784e-11
-4.280000e+00 -1.318133e-11
-4.270000e+00 -1.335626e-11
-4.260000e+00 -1.353362e-11
-4.250000e+00 -1.371453e-11
-4.240000e+00 -1.390026e-11
-4.230000e+00 -1.409220e-11
-4.220000e+00 -1.429182e-11
-4.210000e+00 -1.450069e-11
-4.200000e+00 -1.472044e-11
-4.190000e+00 -1.495269e-11
-4.180000e+00 -1.519904e-11
-4.170000e+00 -1.546107e-11
-4.160000e+00 -1.574021e-11
-4.150000e+00 -1.603780e-11
-4.140000e+00 -1.635496e-11
-4.130000e+00 -1.669263e-11
-4.120000e+00 -1.705147e-11
-4.110000e+00 -1.743186e-11
-4.100000e+00 -1.783389e-11
-4.090000e+00 -1.825730e-11
-4.080000e+00 -1.870152e-11
-4.070000e+00 -1.916562e-11
-4.060000e+00 -1.964833e-11
-4.050000e+00 -2.014807e-11
-4.040000e+00 -2.066295e-11
-4.030000e+00 -2.119081e-11
-4.020000e+00 -2.172927e-11
-4.010000e+00 -2.227575e-11
-4.000000e+00 -2.282754e-11
-3.990000e+00 -2.338185e-11
-3.980000e+00 -2.393588e-11
-3.970000e+00 -2.448688e-11
-3.960000e+00 -2.503220e-11
-3.950000e+00 -2.556937e-11
-3.940001e+00 -2.609617e-11
-3.930000e+00 -2.661065e-11
-3.920000e+00 -2.711123e-11
-3.910000e+00 -2.759671e-11
-3.900001e+00 -2.806632e-11
-3.890000e+00 -2.851976e-11
-3.880000e+00 -2.895719e-11
-3.870000e+00 -2.937927e-11
-3.860001e+00 -2.978715e-11
-3.850000e+00 -3.018243e-11
-3.840000e+00 -3.056717e-11
-3.830000e+00 -3.094384e-11
-3.820001e+00 -3.131528e-11
-3.810000e+00 -3.168466e-11
-3.800000e+00 -3.205539e-11
-3.790000e+00 -3.243109e-11
-3.780000e+00 -3.281550e-11
-3.770000e+00 -3.321242e-11
-3.760000e+00 -3.362560e-11
-3.750000e+00 -3.405873e-11
-3.740000e+00 -3.451531e-11
-3.730000e+00 -3.499861e-11
-3.720000e+00 -3.551161e-11
-3.710000e+00 -3.605691e-11
-3.700000e+00 -3.663673e-11
-3.690001e+00 -3.725282e-11
-3.680000e+00 -3.790647e-11
-3.670000e+00 -3.859845e-11
-3.660000e+00 -3.932903e-11
-3.650001e+00 -4.009796e-11
-3.640000e+00 -4.090448e-11
-3.630000e+00 -4.174735e-11
-3.620000e+00 -4.262488e-11
-3.610001e+00 -4.353494e-11
-3.600000e+00 -4.447502e-11
-3.590000e+00 -4.544232e-11
-3.580000e+00 -4.643375e-11
-3.570001e+00 -4.744602e-11
-3.560000e+00 -4.847571e-11
-3.550000e+00 -4.951933e-11
-3.540000e+00 -5.057341e-11
-3.530000e+00 -5.163452e-11
-3.520000e+00 -5.269940e-11
-3.510000e+00 -5.376499e-11
-3.500000e+00 -5.482849e-11
-3.490000e+00 -5.588741e-11
-3.480000e+00 -5.693965e-11
-3.470000e+00 -5.798353e-11
-3.460000e+00 -5.901779e-11
-3.450000e+00 -6.004167e-11
-3.440001e+00 -6.105488e-11
-3.430000e+00 -6.205766e-11
-3.420000e+00 -6.305075e-11
-3.410000e+00 -6.403534e-11
-3.400001e+00 -6.501318e-11
-3.390000e+00 -6.598638e-11
-3.380000e+00 -6.695752e-11
-3.370000e+00 -6.792953e-11
-3.360001e+00 -6.890567e-11
-3.350000e+00 -6.988947e-11
-3.340000e+00 -7.088464e-11
-3.330000e+00 -7.189502e-11
-3.320001e+00 -7.292455e-11
-3.310000e+00 -7.397713e-11
-3.300000e+00 -7.505660e-11
-3.290000e+00 -7.616663e-11
-3.280000e+00 -7.731066e-11
-3.270000e+00 -7.849187e-11
-3.260000e+00 -7.971304e-11
-3.250000e+00 -8.097657e-11
-3.240000e+00 -8.228439e-11
-3.230000e+00 -8.363793e-11
-3.220000e+00 -8.503809e-11
-3.210000e+00 -8.648524e-11
-3.200000e+00 -8.797914e-11
-3.190001e+00 -8.951906e-11
-3.180000e+00 -9.110369e-11
-3.170000e+00 -9.273120e-11
-3.160000e+00 -9.439934e-11
-3.150001e+00 -9.610539e-11
-3.140000e+00 -9.784634e-11
-3.130000e+00 -9.961883e-11
-3.120000e+00 -1.014193e-10
-3.110001e+00 -1.032442e-10
-3.100000e+00 -1.050899e-10
-3.090000e+00 -1.069526e-10
-3.080000e+00 -1.088291e-10
-3.070001e+00 -1.107161e-10
-3.060000e+00 -1.126108e-10
-3.050000e+00 -1.145109e-10
-3.040000e+00 -1.164145e-10
-3.030000e+00 -1.183203e-10
-3.020000e+00 -1.202275e-10
-3.010000e+00 -1.221361e-10
-3.000000e+00 -1.240468e-10
-2.990000e+00 -1.259608e-10
-2.980000e+00 -1.278800e-10
-2.970000e+00 -1.298071e-10
-2.960000e+00 -1.317452e-10
-2.950000e+00 -1.336980e-10
-2.940001e+00 -1.356695e-10
-2.930000e+00 -1.376642e-10
-2.920000e+00 -1.396868e-10
-2.910000e+00 -1.417421e-10
-2.900001e+00 -1.438350e-10
-2.890000e+00 -1.459701e-10
-2.880000e+00 -1.481521e-10
-2.870000e+00 -1.503851e-10
-2.860001e+00 -1.526730e-10
-2.850000e+00 -1.550189e-10
-2.840000e+00 -1.574256e-10
-2.830000e+00 -1.598952e-10
-2.820001e+00 -1.624288e-10
-2.810000e+00 -1.650270e-10
-2.800000e+00 -1.676897e-10
-2.790000e+00 -1.704159e-10
-2.780000e+00 -1.732040e-10
-2.770000e+00 -1.760517e-10
-2.760000e+00 -1.789562e-10
-2.750000e+00 -1.819140e-10
-2.740000e+00 -1.849215e-10
-2.730000e+00 -1.879746e-10
-2.720000e+00 -1.910692e-10
-2.710000e+00 -1.942009e-10
-2.700000e+00 -1.973657e-10
-2.690001e+00 -2.005597e-10
-2.680000e+00 -2.037793e-10
-2.670000e+00 -2.070214e-10
-2.660000e+00 -2.102834e-10
-2.650001e+00 -2.135634e-10
-2.640000e+00 -2.168602e-10
-2.630000e+00 -2.201733e-10
-2.620000e+00 -2.235028e-10
-2.610001e+00 -2.268499e-10
-2.600000e+00 -2.302163e-10
-2.590000e+00 -2.336044e-10
-2.580000e+00 -2.370174e-10
-2.570001e+00 -2.404588e-10
-2.560000e+00 -2.439328e-10
-2.550000e+00 -2.474440e-10
-2.540000e+00 -2.509970e-10
-2.530001e+00 -2.545966e-10
-2.520000e+00 -2.582479e-10
-2.510000e+00 -2.619553e-10
-2.500000e+00 -2.657235e-10
-2.490000e+00 -2.695566e-10
-2.480000e+00 -2.734583e-10
-2.470000e+00 -2.774319e-10
-2.460000e+00 -2.814798e-10
-2.450000e+00 -2.856042e-10
-2.440001e+00 -2.898064e-10
-2.430000e+00 -2.940872e-10
-2.420000e+00 -2.984467e-10
-2.410000e+00 -3.028843e-10
-2.400001e+00 -3.073991e-10
-2.390000e+00 -3.119897e-10
-2.380000e+00 -3.166542e-10
-2.370000e+00 -3.213906e-10
-2.360001e+00 -3.261965e-10
-2.350000e+00 -3.310695e-10
-2.340000e+00 -3.360076e-10
-2.330000e+00 -3.410082e-10
-2.320001e+00 -3.460697e-10
-2.310000e+00 -3.511902e-10
-2.300000e+00 -3.563684e-10
-2.290000e+00 -3.616036e-10
-2.280001e+00 -3.668953e-10
-2.270000e+00 -3.722434e-10
-2.260000e+00 -3.776487e-10
-2.250000e+00 -3.831121e-10
-2.240000e+00 -3.886350e-10
-2.230000e+00 -3.942193e-10
-2.220000e+00 -3.998669e-10
-2.210000e+00 -4.055803e-10
-2.200000e+00 -4.113621e-10
-2.190001e+00 -4.172147e-10
-2.180000e+00 -4.231408e-10
-2.170000e+00 -4.291429e-10
-2.160000e+00 -4.352233e-10
-2.150001e+00 -4.413842e-10
-2.140000e+00 -4.476272e-10
-2.130000e+00 -4.539539e-10
-2.120000e+00 -4.603654e-10
-2.110001e+00 -4.668624e-10
-2.100000e+00 -4.734453e-10
-2.090000e+00 -4.801141e-10
-2.080000e+00 -4.868684e-10
-2.070001e+00 -4.937079e-10
-2.060000e+00 -5.006315e-10
-2.050000e+00 -5.076385e-10
-2.040000e+00 -5.147281e-10
-2.030001e+00 -5.218991e-10
-2.020000e+00 -5.291509e-10
-2.010000e+00 -5.364827e-10
-2.000000e+00 -5.438943e-10
-1.990000e+00 -5.513857e-10
-1.980000e+00 -5.589570e-10
-1.970000e+00 -5.666093e-10
-1.960000e+00 -5.743435e-10
-1.950000e+00 -5.821614e-10
-1.940001e+00 -5.900649e-10
-1.930000e+00 -5.980567e-10
-1.920000e+00 -6.061392e-10
-1.910000e+00 -6.143156e-10
-1.900001e+00 -6.225891e-10
-1.890000e+00 -6.309631e-10
-1.880000e+00 -6.394408e-10
-1.870000e+00 -6.480257e-10
-1.860001e+00 -6.567207e-10
-1.850000e+00 -6.655288e-10
-1.840000e+00 -6.744526e-10
-1.830000e+00 -6.834940e-10
-1.820001e+00 -6.926549e-10
-1.810000e+00 -7.019362e-10
-1.800000e+00 -7.113387e-10
-1.790000e+00 -7.208624e-10
-1.780001e+00 -7.305069e-10
-1.770000e+00 -7.402713e-10
-1.760000e+00 -7.501545e-10
-1.750000e+00 -7.601548e-10
-1.740000e+00 -7.702702e-10
-1.730000e+00 -7.804989e-10
-1.720000e+00 -7.908389e-10
-1.710000e+00 -8.012881e-10
-1.700000e+00 -8.118450e-10
-1.690001e+00 -8.225081e-10
-1.680000e+00 -8.332766e-10
-1.670000e+00 -8.441498e-10
-1.660000e+00 -8.551279e-10
-1.650001e+00 -8.662116e-10
-1.640000e+00 -8.774024e-10
-1.630000e+00 -8.887024e-10
-1.620000e+00 -9.001142e-10
-1.610001e+00 -9.116414e-10
-1.600000e+00 -9.232876e-10
-1.590000e+00 -9.350574e-10
-1.580000e+00 -9.469554e-10
-1.570001e+00 -9.589868e-10
-1.560000e+00 -9.711565e-10
-1.550000e+00 -9.834696e-10
-1.540000e+00 -9.959312e-10
-1.530001e+00 -1.008546e-09
-1.520000e+00 -1.021317e-09
-1.510000e+00 -1.034250e-09
-1.500000e+00 -1.047346e-09
-1.490000e+00 -1.060607e-09
-1.480000e+00 -1.074036e-09
-1.470000e+00 -1.087633e-09
-1.460000e+00 -1.101397e-09
-1.450000e+00 -1.115328e-09
-1.440001e+00 -1.129423e-09
-1.430000e+00 -1.143681e-09
-1.420000e+00 -1.158097e-09
-1.410000e+00 -1.172669e-09
-1.400001e+00 -1.187392e-09
-1.390000e+00 -1.202264e-09
-1.380000e+00 -1.217279e-09
-1.370000e+00 -1.232433e-09
-1.360001e+00 -1.247725e-09
-1.350000e+00 -1.263150e-09
-1.340000e+00 -1.278707e-09
-1.330000e+00 -1.294394e-09
-1.320001e+00 -1.310210e-09
-1.310000e+00 -1.326156e-09
-1.300000e+00 -1.342233e-09
-1.290000e+00 -1.358443e-09
-1.280001e+00 -1.374790e-09
-1.270000e+00 -1.391276e-09
-1.260000e+00 -1.407908e-09
-1.250000e+00 -1.424691e-09
-1.240000e+00 -1.441631e-09
-1.230000e+00 -1.458734e-09
-1.220000e+00 -1.476007e-09
-1.210000e+00 -1.493456e-09
-1.200000e+00 -1.511089e-09