-1.200000e+01 0.000000e+00
-1.199000e+01 0.000000e+00
-1.198000e+01 0.000000e+00
-1.197000e+01 0.000000e+00
-1.196000e+01 2.484973e-26
-1.195000e+01 -3.485632e-23
-1.194000e+01 -3.811450e-22
-1.193000e+01 -2.263577e-21
-1.192000e+01 -9.684294e-21
-1.191000e+01 -3.339068e-20
-1.190000e+01 -9.847206e-20
-1.189000e+01 -2.575924e-19
-1.188000e+01 -6.123716e-19
-1.187000e+01 -1.345849e-18
-1.186000e+01 -2.769221e-18
-1.185000e+01 -5.386024e-18
-1.184000e+01 -9.976596e-18
-1.183000e+01 -1.770478e-17
-1.182000e+01 -3.024754e-17
-1.181000e+01 -4.994603e-17
-1.180000e+01 -7.997432e-17
-1.179000e+01 -1.245182e-16
-1.178000e+01 -1.889530e-16
-1.177000e+01 -2.800048e-16
-1.176000e+01 -4.058730e-16
-1.175000e+01 -5.762908e-16
-1.174000e+01 -8.024883e-16
-1.173000e+01 -1.097025e-15
-1.172000e+01 -1.473449e-15
-1.171000e+01 -1.945736e-15
-1.170000e+01 -2.527464e-15
-1.169000e+01 -3.230670e-15
-1.168000e+01 -4.064355e-15
-1.167000e+01 -5.032562e-15
-1.166000e+01 -6.132040e-15
-1.165000e+01 -7.349413e-15
-1.164000e+01 -8.657881e-15
-1.163000e+01 -1.001344e-14
-1.162000e+01 -1.135062e-14
-1.161000e+01 -1.257787e-14
-1.160000e+01 -1.357256e-14
-1.159000e+01 -1.417573e-14
-1.158000e+01 -1.418685e-14
-1.157000e+01 -1.335856e-14
-1.156000e+01 -1.139173e-14
-1.155000e+01 -7.931102e-15
-1.154000e+01 -2.561659e-15
-1.153000e+01 5.193821e-15
-1.152000e+01 1.587579e-14
-1.151000e+01 3.008717e-14
-1.150000e+01 4.849034e-14
-1.149000e+01 7.180171e-14
-1.148000e+01 1.007833e-13
-1.147000e+01 1.362311e-13
-1.146000e+01 1.789597e-13
-1.145000e+01 2.297837e-13
-1.144000e+01 2.894942e-13
-1.143000e+01 3.588316e-13
-1.142000e+01 4.384549e-13
-1.141000e+01 5.289053e-13
-1.140000e+01 6.305675e-13
-1.139000e+01 7.436266e-13
-1.138000e+01 8.680223e-13
-1.137000e+01 1.003401e-12
-1.136000e+01 1.149064e-12
-1.135000e+01 1.303920e-12
-1.134000e+01 1.466435e-12
-1.133000e+01 1.634580e-12
-1.132000e+01 1.805794e-12
-1.131000e+01 1.976938e-12
-1.130000e+01 2.144266e-12
-1.129000e+01 2.303399e-12
-1.128000e+01 2.449315e-12
-1.127000e+01 2.576343e-12
-1.126000e+01 2.678179e-12
-1.125000e+01 2.747915e-12
-1.124000e+01 2.778086e-12
-1.123000e+01 2.760735e-12
-1.122000e+01 2.687503e-12
-1.121000e+01 2.549734e-12
-1.120000e+01 2.338605e-12
-1.119000e+01 2.045287e-12
-1.118000e+01 1.661110e-12
-1.117000e+01 1.177770e-12
-1.116000e+01 5.875375e-13
-1.115000e+01 -1.164980e-13
-1.114000e+01 -9.401807e-13
-1.113000e+01 -1.888022e-12
-1.112000e+01 -2.962925e-12
-1.111000e+01 -4.165907e-12
-1.110000e+01 -5.495819e-12
-1.109000e+01 -6.949071e-12
-1.108000e+01 -8.519374e-12
-1.107000e+01 -1.019749e-11
-1.106000e+01 -1.197102e-11
-1.105000e+01 -1.382420e-11
-1.104000e+01 -1.573781e-11
-1.103000e+01 -1.768897e-11
-1.102000e+01 -1.965122e-11
-1.101000e+01 -2.159442e-11
-1.100000e+01 -2.348493e-11
-1.099000e+01 -2.528569e-11
-1.098000e+01 -2.695650e-11
-1.097000e+01 -2.845433e-11
-1.096000e+01 -2.973369e-11
-1.095000e+01 -3.074720e-11
-1.094000e+01 -3.144606e-11
-1.093000e+01 -3.178080e-11
-1.092000e+01 -3.170200e-11
-1.091000e+01 -3.116109e-11
-1.090000e+01 -3.011130e-11
-1.089000e+01 -2.850857e-11
-1.088000e+01 -2.631256e-11
-1.087000e+01 -2.348777e-11
-1.086000e+01 -2.000449e-11
-1.085000e+01 -1.584003e-11
-1.084000e+01 -1.097965e-11
-1.083000e+01 -5.417703e-12
-1.082000e+01 8.414065e-13
-1.081000e+01 7.782310e-12
-1.080000e+01 1.537783e-11
-1.079000e+01 2.358828e-11
-1.078000e+01 3.236086e-11
-1.077000e+01 4.162931e-11
-1.076000e+01 5.131357e-11
-1.075000e+01 6.131985e-11
-1.074000e+01 7.154075e-11
-1.073000e+01 8.185569e-11
-1.072000e+01 9.213159e-11
-1.071000e+01 1.022238e-10
-1.070000e+01 1.119772e-10
-1.069000e+01 1.212277e-10
-1.068000e+01 1.298041e-10
-1.067000e+01 1.375296e-10
-1.066000e+01 1.442245e-10
-1.065000e+01 1.497085e-10
-1.064000e+01 1.538030e-10
-1.063000e+01 1.563343e-10
-1.062000e+01 1.571365e-10
-1.061000e+01 1.560544e-10
-1.060000e+01 1.529468e-10
-1.059000e+01 1.476894e-10
-1.058000e+01 1.401785e-10
-1.057000e+01 1.303333e-10
-1.056000e+01 1.180995e-10
-1.055000e+01 1.034518e-10
-1.054000e+01 8.639650e-11
-1.053000e+01 6.697348e-11
-1.052000e+01 4.525837e-11
-1.051000e+01 2.136393e-11
-1.050000e+01 -4.558967e-12
-1.049000e+01 -3.232076e-11
-1.048000e+01 -6.169324e-11
-1.047000e+01 -9.241016e-11
-1.046000e+01 -1.241684e-10
-1.045000e+01 -1.566298e-10
-1.044000e+01 -1.894237e-10
-1.043000e+01 -2.221500e-10
-1.042000e+01 -2.543826e-10
-1.041000e+01 -2.856744e-10
-1.040000e+01 -3.155617e-10
-1.039000e+01 -3.435701e-10
-1.038000e+01 -3.692198e-10
-1.037000e+01 -3.920331e-10
-1.036000e+01 -4.115404e-10
-1.035000e+01 -4.272874e-10
-1.034000e+01 -4.388430e-10
-1.033000e+01 -4.458058e-10
-1.032000e+01 -4.478122e-10
-1.031000e+01 -4.445437e-10
-1.030000e+01 -4.357333e-10
-1.029000e+01 -4.211731e-10
-1.028000e+01 -4.007198e-10
-1.027000e+01 -3.743011e-10
-1.026000e+01 -3.419199e-10
-1.025000e+01 -3.036590e-10
-1.024000e+01 -2.596845e-10
-1.023000e+01 -2.102474e-10
-1.022000e+01 -1.556854e-10
-1.021000e+01 -9.642234e-11
-1.020000e+01 -3.296747e-11
-1.019000e+01 3.408752e-11
-1.018000e+01 1.040721e-10
-1.017000e+01 1.762422e-10
-1.016000e+01 2.497864e-10
-1.015000e+01 3.238339e-10
-1.014000e+01 3.974636e-10
-1.013000e+01 4.697137e-10
-1.012000e+01 5.395932e-10
-1.011000e+01 6.060942e-10
-1.010000e+01 6.682047e-10
-1.009000e+01 7.249216e-10
-1.008000e+01 7.752657e-10
-1.007000e+01 8.182960e-10
-1.006000e+01 8.531238e-10
-1.005000e+01 8.789275e-10
-1.004000e+01 8.949670e-10
-1.003000e+01 9.005969e-10
-1.002000e+01 8.952804e-10
-1.001000e+01 8.786006e-10
-1.000000e+01 8.502716e-10
-9.990000e+00 8.101487e-10
-9.980000e+00 7.582356e-10
-9.970000e+00 6.946916e-10
-9.960000e+00 6.198353e-10
-9.950000e+00 5.341478e-10
-9.940001e+00 4.382727e-10
-9.930000e+00 3.330138e-10
-9.920000e+00 2.193319e-10
-9.910000e+00 9.833755e-11
-9.900000e+00 -2.871748e-11
-9.890000e+00 -1.604512e-10
-9.880000e+00 -2.953648e-10
-9.870000e+00 -4.318579e-10
-9.860001e+00 -5.682458e-10
-9.850000e+00 -7.027789e-10
-9.840000e+00 -8.336632e-10
-9.830000e+00 -9.590823e-10
-9.820000e+00 -1.077221e-09
-9.809999e+00 -1.186288e-09
-9.800000e+00 -1.284543e-09
-9.790000e+00 -1.370319e-09
-9.780000e+00 -1.442048e-09
-9.770000e+00 -1.498284e-09
-9.760000e+00 -1.537729e-09
-9.750000e+00 -1.559252e-09
-9.740000e+00 -1.561910e-09
-9.730000e+00 -1.544971e-09
-9.720000e+00 -1.507923e-09
-9.710000e+00 -1.450496e-09
-9.700000e+00 -1.372668e-09
-9.690001e+00 -1.274675e-09
-9.680000e+00 -1.157019e-09
-9.670000e+00 -1.020465e-09
-9.660000e+00 -8.660444e-10
-9.650000e+00 -6.950468e-10
-9.640000e+00 -5.090131e-10
-9.630000e+00 -3.097231e-10
-9.620000e+00 -9.917979e-11
-9.610001e+00 1.204092e-10
-9.600000e+00 3.466537e-10
-9.590000e+00 5.770061e-10
-9.580000e+00 8.087891e-10
-9.570000e+00 1.039226e-09
-9.559999e+00 1.265472e-09
-9.550000e+00 1.484650e-09
-9.540000e+00 1.693884e-09
-9.530000e+00 1.890336e-09
-9.520000e+00 2.071242e-09
-9.510000e+00 2.233949e-09
-9.500000e+00 2.375950e-09
-9.490000e+00 2.494921e-09
-9.480000e+00 2.588751e-09
-9.470000e+00 2.655575e-09
-9.460000e+00 2.693805e-09
-9.450000e+00 2.702151e-09
-9.440001e+00 2.679648e-09
-9.430000e+00 2.625675e-09
-9.420000e+00 2.539968e-09
-9.410000e+00 2.422632e-09
-9.400000e+00 2.274149e-09
-9.390000e+00 2.095377e-09
-9.380000e+00 1.887552e-09
-9.370000e+00 1.652278e-09
-9.360001e+00 1.391513e-09
-9.350000e+00 1.107557e-09
-9.340000e+00 8.030297e-10
-9.330000e+00 4.808414e-10
-9.320000e+00 1.441688e-10
-9.309999e+00 -2.035805e-10
-9.300000e+00 -5.588037e-10
-9.290000e+00 -9.177423e-10
-9.280000e+00 -1.276523e-09
-9.270000e+00 -1.631202e-09
-9.260000e+00 -1.977808e-09
-9.250000e+00 -2.312392e-09
-9.240000e+00 -2.631070e-09
-9.230000e+00 -2.930068e-09
-9.220000e+00 -3.205771e-09
-9.210000e+00 -3.454763e-09
-9.200000e+00 -3.673871e-09
-9.190001e+00 -3.860202e-09
-9.180000e+00 -4.011182e-09
-9.170000e+00 -4.124586e-09
-9.160000e+00 -4.198567e-09
-9.150000e+00 -4.231684e-09
-9.140000e+00 -4.222920e-09
-9.130000e+00 -4.171693e-09
-9.120000e+00 -4.077876e-09
-9.110001e+00 -3.941794e-09
-9.100000e+00 -3.764227e-09
-9.090000e+00 -3.546403e-09
-9.080000e+00 -3.289991e-09
-9.070000e+00 -2.997081e-09
-9.060000e+00 -2.670167e-09
-9.050000e+00 -2.312123e-09
-9.040000e+00 -1.926167e-09
-9.030000e+00 -1.515835e-09
-9.020000e+00 -1.084942e-09
-9.010000e+00 -6.375402e-10
-9.000000e+00 -1.778769e-10
-8.990000e+00 2.896485e-10
-8.980000e+00 7.605325e-10
-8.970000e+00 1.230214e-09
-8.960000e+00 1.694124e-09
-8.950000e+00 2.147731e-09
-8.940001e+00 2.586590e-09
-8.930000e+00 3.006388e-09
-8.920000e+00 3.402987e-09
-8.910000e+00 3.772473e-09
-8.900000e+00 4.111184e-09
-8.890000e+00 4.415760e-09
-8.880000e+00 4.683166e-09
-8.870000e+00 4.910726e-09
-8.860001e+00 5.096150e-09
-8.850000e+00 5.237553e-09
-8.840000e+00 5.333473e-09
-8.830000e+00 5.382882e-09
-8.820000e+00 5.385196e-09
-8.810000e+00 5.340278e-09
-8.800000e+00 5.248435e-09
-8.790000e+00 5.110415e-09
-8.780000e+00 4.927392e-09
-8.770000e+00 4.700958e-09
-8.760000e+00 4.433100e-09
-8.750000e+00 4.126179e-09
-8.740000e+00 3.782909e-09
-8.730000e+00 3.406319e-09
-8.720000e+00 2.999735e-09
-8.710000e+00 2.566734e-09
-8.700000e+00 2.111117e-09
-8.690001e+00 1.636872e-09
-8.680000e+00 1.148129e-09
-8.670000e+00 6.491292e-10
-8.660000e+00 1.441825e-10
-8.650000e+00 -3.623719e-10
-8.640000e+00 -8.662030e-10
-8.630000e+00 -1.363027e-09
-8.620000e+00 -1.848643e-09
-8.610001e+00 -2.318969e-09
-8.600000e+00 -2.770076e-09
-8.590000e+00 -3.198222e-09
-8.580000e+00 -3.599876e-09
-8.570000e+00 -3.971753e-09
-8.560000e+00 -4.310831e-09
-8.550000e+00 -4.614382e-09
-8.540000e+00 -4.879986e-09
-8.530000e+00 -5.105548e-09
-8.520000e+00 -5.289316e-09
-8.510000e+00 -5.429886e-09
-8.500000e+00 -5.526219e-09
-8.490000e+00 -5.577634e-09
-8.480000e+00 -5.583824e-09
-8.470000e+00 -5.544845e-09
-8.460000e+00 -5.461117e-09
-8.450000e+00 -5.333421e-09
-8.440001e+00 -5.162885e-09
-8.430000e+00 -4.950976e-09
-8.420000e+00 -4.699488e-09
-8.410000e+00 -4.410524e-09
-8.400000e+00 -4.086480e-09
-8.390000e+00 -3.730025e-09
-8.380000e+00 -3.344080e-09
-8.370000e+00 -2.931795e-09
-8.360001e+00 -2.496523e-09
-8.350000e+00 -2.041797e-09
-8.340000e+00 -1.571300e-09
-8.330000e+00 -1.088838e-09
-8.320000e+00 -5.983115e-10
-8.310000e+00 -1.036844e-10
-8.300000e+00 3.910453e-10
-8.290000e+00 8.818762e-10
-8.280000e+00 1.364835e-09
-8.270000e+00 1.836007e-09
-8.260000e+00 2.291565e-09
-8.250000e+00 2.727805e-09
-8.240000e+00 3.141166e-09
-8.230000e+00 3.528269e-09
-8.220000e+00 3.885939e-09
-8.210000e+00 4.211229e-09
-8.200000e+00 4.501453e-09
-8.190001e+00 4.754200e-09
-8.180000e+00 4.967362e-09
-8.170000e+00 5.139148e-09
-8.160000e+00 5.268105e-09
-8.150000e+00 5.353131e-09
-8.140000e+00 5.393484e-09
-8.130000e+00 5.388794e-09
-8.120000e+00 5.339068e-09
-8.110001e+00 5.244691e-09
-8.100000e+00 5.106429e-09
-8.090000e+00 4.925421e-09
-8.080000e+00 4.703175e-09
-8.070000e+00 4.441558e-09
-8.060000e+00 4.142779e-09
-8.050000e+00 3.809380e-09
-8.040000e+00 3.444204e-09
-8.030000e+00 3.050384e-09
-8.020000e+00 2.631309e-09
-8.010000e+00 2.190601e-09
-8.000000e+00 1.732082e-09
-7.990000e+00 1.259739e-09
-7.980000e+00 7.776927e-10
-7.970000e+00 2.901590e-10
-7.960000e+00 -1.985886e-10
-7.950000e+00 -6.842573e-10
-7.940000e+00 -1.162574e-09
-7.930000e+00 -1.629325e-09
-7.920000e+00 -2.080395e-09
-7.910000e+00 -2.511803e-09
-7.900000e+00 -2.919746e-09
-7.890000e+00 -3.300626e-09
-7.880000e+00 -3.651090e-09
-7.870000e+00 -3.968061e-09
-7.860000e+00 -4.248766e-09
-7.850000e+00 -4.490760e-09
-7.840000e+00 -4.691954e-09
-7.830000e+00 -4.850633e-09
-7.820000e+00 -4.965468e-09
-7.810000e+00 -5.035532e-09
-7.800000e+00 -5.060312e-09
-7.790000e+00 -5.039705e-09
-7.780000e+00 -4.974021e-09
-7.770000e+00 -4.863983e-09
-7.760000e+00 -4.710716e-09
-7.750000e+00 -4.515734e-09
-7.740000e+00 -4.280925e-09
-7.730000e+00 -4.008535e-09
-7.720000e+00 -3.701139e-09
-7.710000e+00 -3.361621e-09
-7.700000e+00 -2.993142e-09
-7.690000e+00 -2.599112e-09
-7.680000e+00 -2.183153e-09
-7.670000e+00 -1.749067e-09
-7.660000e+00 -1.300797e-09
-7.650000e+00 -8.423934e-10
-7.640000e+00 -3.779727e-10
-7.630000e+00 8.831882e-11
-7.620000e+00 5.523432e-10
-7.610000e+00 1.010008e-09
-7.600000e+00 1.457303e-09
-7.590000e+00 1.890334e-09
-7.580000e+00 2.305355e-09
-7.570000e+00 2.698805e-09
-7.560000e+00 3.067326e-09
-7.550000e+00 3.407803e-09
-7.540000e+00 3.717376e-09
-7.530000e+00 3.993469e-09
-7.520000e+00 4.233799e-09
-7.510000e+00 4.436403e-09
-7.500000e+00 4.599639e-09
-7.490000e+00 4.722200e-09
-7.480000e+00 4.803117e-09
-7.470000e+00 4.841763e-09
-7.460000e+00 4.837852e-09
-7.450000e+00 4.791435e-09
-7.440000e+00 4.702893e-09
-7.430000e+00 4.572931e-09
-7.420000e+00 4.402566e-09
-7.410000e+00 4.193110e-09
-7.400000e+00 3.946158e-09
-7.390000e+00 3.663573e-09
-7.380000e+00 3.347460e-09
-7.370000e+00 3.000153e-09
-7.360000e+00 2.624189e-09
-7.350000e+00 2.222289e-09
-7.340000e+00 1.797331e-09
-7.330000e+00 1.352331e-09
-7.320000e+00 8.904151e-10
-7.310000e+00 4.147957e-10
-7.300000e+00 -7.125108e-11
-7.290000e+00 -5.644109e-10
-7.280000e+00 -1.061355e-09
-7.270000e+00 -1.558766e-09
-7.260000e+00 -2.053356e-09
-7.250000e+00 -2.541898e-09
-7.240000e+00 -3.021237e-09
-7.230000e+00 -3.488325e-09
-7.220000e+00 -3.940227e-09
-7.210000e+00 -4.374155e-09
-7.200000e+00 -4.787476e-09
-7.190000e+00 -5.177736e-09
-7.180000e+00 -5.542678e-09
-7.170000e+00 -5.880251e-09
-7.160000e+00 -6.188633e-09
-7.150000e+00 -6.466239e-09
-7.140000e+00 -6.711733e-09
-7.130000e+00 -6.924043e-09
-7.120000e+00 -7.102366e-09
-7.110000e+00 -7.246175e-09
-7.100000e+00 -7.355229e-09
-7.090000e+00 -7.429573e-09
-7.080000e+00 -7.469541e-09
-7.070000e+00 -7.475757e-09
-7.060000e+00 -7.449130e-09
-7.050000e+00 -7.390853e-09
-7.040000e+00 -7.302397e-09
-7.030000e+00 -7.185496e-09
-7.020000e+00 -7.042145e-09
-7.010000e+00 -6.874577e-09
-7.000000e+00 -6.685257e-09
-6.990000e+00 -6.476855e-09
-6.980000e+00 -6.252231e-09
-6.970000e+00 -6.014412e-09
-6.960000e+00 -5.766566e-09
-6.950000e+00 -5.511977e-09
-6.940000e+00 -5.254017e-09
-6.930000e+00 -4.996114e-09
-6.920000e+00 -4.741728e-09
-6.910000e+00 -4.494312e-09
-6.900000e+00 -4.257282e-09
-6.890000e+00 -4.033989e-09
-6.880000e+00 -3.827680e-09
-6.870000e+00 -3.641471e-09
-6.860000e+00 -3.478313e-09
-6.850000e+00 -3.340962e-09
-6.840000e+00 -3.231951e-09
-6.830000e+00 -3.153565e-09
-6.820000e+00 -3.107813e-09
-6.810000e+00 -3.096410e-09
-6.800000e+00 -3.120755e-09
-6.790000e+00 -3.181920e-09
-6.780000e+00 -3.280630e-09
-6.770000e+00 -3.417264e-09
-6.760000e+00 -3.591845e-09
-6.750000e+00 -3.804040e-09
-6.740000e+00 -4.053168e-09
-6.730000e+00 -4.338202e-09
-6.720000e+00 -4.657787e-09
-6.710000e+00 -5.010250e-09
-6.700000e+00 -5.393626e-09
-6.690000e+00 -5.805681e-09
-6.680000e+00 -6.243933e-09
-6.670000e+00 -6.705691e-09
-6.660000e+00 -7.188080e-09
-6.650000e+00 -7.688081e-09
-6.640000e+00 -8.202568e-09
-6.630000e+00 -8.728342e-09
-6.620000e+00 -9.262179e-09
-6.610000e+00 -9.800859e-09
-6.600000e+00 -1.034121e-08
-6.590000e+00 -1.088015e-08
-6.580000e+00 -1.141471e-08
-6.570000e+00 -1.194210e-08
-6.560000e+00 -1.245971e-08
-6.550000e+00 -1.296514e-08
-6.540000e+00 -1.345625e-08
-6.530000e+00 -1.393119e-08
-6.520000e+00 -1.438837e-08
-6.510000e+00 -1.482651e-08
-6.500000e+00 -1.524468e-08
-6.490000e+00 -1.564222e-08
-6.480000e+00 -1.601884e-08
-6.470000e+00 -1.637455e-08
-6.460000e+00 -1.670967e-08
-6.450000e+00 -1.702483e-08
-6.440000e+00 -1.732094e-08
-6.430000e+00 -1.759919e-08
-6.420000e+00 -1.786099e-08
-6.410000e+00 -1.810798e-08
-6.400000e+00 -1.834199e-08
-6.390000e+00 -1.856499e-08
-6.380000e+00 -1.877910e-08
-6.370000e+00 -1.898650e-08
-6.360000e+00 -1.918945e-08
-6.350000e+00 -1.939022e-08
-6.340000e+00 -1.959108e-08
-6.330000e+00 -1.979426e-08
-6.320000e+00 -2.000190e-08
-6.310000e+00 -2.021606e-08
-6.300000e+00 -2.043867e-08
-6.290000e+00 -2.067151e-08
-6.280000e+00 -2.091620e-08
-6.270000e+00 -2.117418e-08
-6.260000e+00 -2.144670e-08
-6.250000e+00 -2.173481e-08
-6.240000e+00 -2.203937e-08
-6.230000e+00 -2.236103e-08
-6.220000e+00 -2.270024e-08
-6.210000e+00 -2.305727e-08
-6.200000e+00 -2.343223e-08
-6.190000e+00 -2.382505e-08
-6.180000e+00 -2.423553e-08
-6.170000e+00 -2.466333e-08
-6.160000e+00 -2.510803e-08
-6.150000e+00 -2.556913e-08
-6.140000e+00 -2.604607e-08
-6.130000e+00 -2.653825e-08
-6.120000e+00 -2.704509e-08
-6.110000e+00 -2.756600e-08
-6.100000e+00 -2.810046e-08
-6.090000e+00 -2.864797e-08
-6.080000e+00 -2.920814e-08
-6.070000e+00 -2.978066e-08
-6.060000e+00 -3.036532e-08
-6.050000e+00 -3.096204e-08
-6.040000e+00 -3.157085e-08
-6.030000e+00 -3.219190e-08
-6.020000e+00 -3.282546e-08
-6.010000e+00 -3.347194e-08
-6.000000e+00 -3.413184e-08
-5.990000e+00 -3.480577e-08
-5.980000e+00 -3.549441e-08
-5.970000e+00 -3.619854e-08
-5.960000e+00 -3.691897e-08
-5.950000e+00 -3.765654e-08
-5.940000e+00 -3.841213e-08
-5.930000e+00 -3.918656e-08
-5.920000e+00 -3.998067e-08
-5.910000e+00 -4.079521e-08
-5.900000e+00 -4.163087e-08
-5.890000e+00 -4.248825e-08
-5.880000e+00 -4.336780e-08
-5.870000e+00 -4.426989e-08
-5.860000e+00 -4.519473e-08
-5.850000e+00 -4.614237e-08
-5.840000e+00 -4.711272e-08
-5.830000e+00 -4.810552e-08
-5.820000e+00 -4.912036e-08
-5.810000e+00 -5.015667e-08
-5.800000e+00 -5.121376e-08
-5.790000e+00 -5.229081e-08
-5.780000e+00 -5.338686e-08
-5.770000e+00 -5.450089e-08
-5.760000e+00 -5.563180e-08
-5.750000e+00 -5.677846e-08
-5.740000e+00 -5.793972e-08
-5.730000e+00 -5.911446e-08
-5.720000e+00 -6.030157e-08
-5.710000e+00 -6.150009e-08
-5.700000e+00 -6.270908e-08
-5.690000e+00 -6.392782e-08
-5.680000e+00 -6.515572e-08
-5.670000e+00 -6.639237e-08
-5.660000e+00 -6.763763e-08
-5.650000e+00 -6.889152e-08
-5.640000e+00 -7.015436e-08
-5.630000e+00 -7.142675e-08
-5.620000e+00 -7.270949e-08
-5.610000e+00 -7.400372e-08
-5.600000e+00 -7.531079e-08
-5.590000e+00 -7.663233e-08
-5.580000e+00 -7.797021e-08
-5.570000e+00 -7.932653e-08
-5.560000e+00 -8.070353e-08
-5.550000e+00 -8.210368e-08
-5.540000e+00 -8.352955e-08
-5.530000e+00 -8.498379e-08
-5.520000e+00 -8.646913e-08
-5.510000e+00 -8.798828e-08
-5.500000e+00 -8.954394e-08
-5.490000e+00 -9.113872e-08
-5.480000e+00 -9.277511e-08
-5.470000e+00 -9.445539e-08
-5.460000e+00 -9.618171e-08
-5.450000e+00 -9.795591e-08
-5.440000e+00 -9.977954e-08
-5.430000e+00 -1.016539e-07
-5.420000e+00 -1.035798e-07
-5.410000e+00 -1.055579e-07
-5.400000e+00 -1.075884e-07
-5.390000e+00 -1.096709e-07
-5.380000e+00 -1.118050e-07
-5.370000e+00 -1.139897e-07
-5.360000e+00 -1.162236e-07
-5.350000e+00 -1.185051e-07
-5.340000e+00 -1.208322e-07
-5.330000e+00 -1.232026e-07
-5.320000e+00 -1.256139e-07
-5.310000e+00 -1.280634e-07
-5.300000e+00 -1.305483e-07
-5.290000e+00 -1.330658e-07
-5.280000e+00 -1.356128e-07
-5.270000e+00 -1.381866e-07
-5.260000e+00 -1.407844e-07
-5.250000e+00 -1.434037e-07
-5.240000e+00 -1.460421e-07
-5.230000e+00 -1.486975e-07
-5.220000e+00 -1.513682e-07
-5.210000e+00 -1.540529e-07
-5.200000e+00 -1.567508e-07
-5.190000e+00 -1.594614e-07
-5.180000e+00 -1.621847e-07
-5.170000e+00 -1.649215e-07
-5.160000e+00 -1.676729e-07
-5.150000e+00 -1.704406e-07
-5.140000e+00 -1.732269e-07
-5.130000e+00 -1.760346e-07
-5.120000e+00 -1.788670e-07
-5.110000e+00 -1.817278e-07
-5.100000e+00 -1.846214e-07
-5.090000e+00 -1.875523e-07
-5.080000e+00 -1.905254e-07
-5.070000e+00 -1.935459e-07
-5.060000e+00 -1.966192e-07
-5.050000e+00 -1.997509e-07
-5.040000e+00 -2.029463e-07
-5.030000e+00 -2.062112e-07
-5.020000e+00 -2.095508e-07
-5.010000e+00 -2.129703e-07
-5.000000e+00 -2.164747e-07
-4.990000e+00 -2.200686e-07
-4.980000e+00 -2.237561e-07
-4.970000e+00 -2.275409e-07
-4.960000e+00 -2.314261e-07
-4.950000e+00 -2.354143e-07
-4.940000e+00 -2.395076e-07
-4.930000e+00 -2.437071e-07
-4.920000e+00 -2.480136e-07
-4.910000e+00 -2.524270e-07
-4.900000e+00 -2.569467e-07
-4.890000e+00 -2.615715e-07
-4.880000e+00 -2.662993e-07
-4.870000e+00 -2.711278e-07
-4.860000e+00 -2.760539e-07
-4.850000e+00 -2.810743e-07
-4.840000e+00 -2.861851e-07
-4.830000e+00 -2.913823e-07
-4.820000e+00 -2.966614e-07
-4.810000e+00 -3.020182e-07
-4.800000e+00 -3.074479e-07
-4.790000e+00 -3.129464e-07
-4.780000e+00 -3.185092e-07
-4.770000e+00 -3.241324e-07
-4.760000e+00 -3.298123e-07
-4.750000e+00 -3.355455e-07
-4.740000e+00 -3.413295e-07
-4.730000e+00 -3.471620e-07
-4.720000e+00 -3.530415e-07
-4.710000e+00 -3.589671e-07
-4.700000e+00 -3.649388e-07
-4.690000e+00 -3.709573e-07
-4.680000e+00 -3.770240e-07
-4.670000e+00 -3.831411e-07
-4.660000e+00 -3.893116e-07
-4.650000e+00 -3.955394e-07
-4.640000e+00 -4.018289e-07
-4.630000e+00 -4.081854e-07
-4.620000e+00 -4.146144e-07
-4.610000e+00 -4.211225e-07
-4.600000e+00 -4.277163e-07
-4.590000e+00 -4.344029e-07
-4.580000e+00 -4.411897e-07
-4.570000e+00 -4.480843e-07
-4.560000e+00 -4.550944e-07
-4.550000e+00 -4.622273e-07
-4.540000e+00 -4.694907e-07
-4.530000e+00 -4.768917e-07
-4.520000e+00 -4.844369e-07
-4.510000e+00 -4.921328e-07
-4.500000e+00 -4.999852e-07
-4.490000e+00 -5.079991e-07
-4.480000e+00 -5.161791e-07
-4.470000e+00 -5.245289e-07
-4.460000e+00 -5.330514e-07
-4.450000e+00 -5.417486e-07
-4.440000e+00 -5.506220e-07
-4.430000e+00 -5.596718e-07
-4.420000e+00 -5.688976e-07
-4.410000e+00 -5.782982e-07
-4.400000e+00 -5.878716e-07
-4.390000e+00 -5.976151e-07
-4.380000e+00 -6.075254e-07
-4.370000e+00 -6.175986e-07
-4.360000e+00 -6.278303e-07
-4.350000e+00 -6.382160e-07
-4.340000e+00 -6.487504e-07
-4.330000e+00 -6.594287e-07
-4.320000e+00 -6.702458e-07
-4.310000e+00 -6.811962e-07
-4.300000e+00 -6.922756e-07
-4.290000e+00 -7.034793e-07
-4.280000e+00 -7.148032e-07
-4.270000e+00 -7.262437e-07
-4.260000e+00 -7.377981e-07
-4.250000e+00 -7.494641e-07
-4.240000e+00 -7.612403e-07
-4.230000e+00 -7.731261e-07
-4.220000e+00 -7.851219e-07
-4.210000e+00 -7.972289e-07
-4.200000e+00 -8.094496e-07
-4.190000e+00 -8.217867e-07
-4.180000e+00 -8.342446e-07
-4.170000e+00 -8.468283e-07
-4.160000e+00 -8.595434e-07
-4.150000e+00 -8.723966e-07
-4.140000e+00 -8.853954e-07
-4.130000e+00 -8.985475e-07
-4.120000e+00 -9.118615e-07
-4.110000e+00 -9.253463e-07
-4.100000e+00 -9.390112e-07
-4.090000e+00 -9.528654e-07
-4.080000e+00 -9.669187e-07
-4.070000e+00 -9.811802e-07
-4.060000e+00 -9.956594e-07
-4.050000e+00 -1.010365e-06
-4.040000e+00 -1.025306e-06
-4.030000e+00 -1.040491e-06
-4.020000e+00 -1.055926e-06
-4.010000e+00 -1.071618e-06
-4.000000e+00 -1.087575e-06
-3.990000e+00 -1.103800e-06
-3.980000e+00 -1.120298e-06
-3.970000e+00 -1.137072e-06
-3.960000e+00 -1.154126e-06
-3.950000e+00 -1.171461e-06
-3.940001e+00 -1.189077e-06
-3.930000e+00 -1.206974e-06
-3.920000e+00 -1.225152e-06
-3.910000e+00 -1.243610e-06
-3.900001e+00 -1.262343e-06
-3.890000e+00 -1.281351e-06
-3.880000e+00 -1.300630e-06
-3.870000e+00 -1.320175e-06
-3.860001e+00 -1.339984e-06
-3.850000e+00 -1.360052e-06
-3.840000e+00 -1.380375e-06
-3.830000e+00 -1.400949e-06
-3.820001e+00 -1.421771e-06
-3.810000e+00 -1.442837e-06
-3.800000e+00 -1.464145e-06
-3.790000e+00 -1.485692e-06
-3.780000e+00 -1.507477e-06
-3.770000e+00 -1.529499e-06
-3.760000e+00 -1.551757e-06
-3.750000e+00 -1.574253e-06
-3.740000e+00 -1.596988e-06
-3.730000e+00 -1.619966e-06
-3.720000e+00 -1.643188e-06
-3.710000e+00 -1.666660e-06
-3.700000e+00 -1.690387e-06
-3.690001e+00 -1.714375e-06
-3.680000e+00 -1.738631e-06
-3.670000e+00 -1.763162e-06
-3.660000e+00 -1.787977e-06
-3.650001e+00 -1.813085e-06
-3.640000e+00 -1.838494e-06
-3.630000e+00 -1.864214e-06
-3.620000e+00 -1.890255e-06
-3.610001e+00 -1.916627e-06
-3.600000e+00 -1.943338e-06
-3.590000e+00 -1.970399e-06
-3.580000e+00 -1.997820e-06
-3.570001e+00 -2.025608e-06
-3.560000e+00 -2.053772e-06
-3.550000e+00 -2.082321e-06
-3.540000e+00 -2.111261e-06
-3.530000e+00 -2.140599e-06
-3.520000e+00 -2.170341e-06
-3.510000e+00 -2.200491e-06
-3.500000e+00 -2.231054e-06
-3.490000e+00 -2.262032e-06
-3.480000e+00 -2.293429e-06
-3.470000e+00 -2.325245e-06
-3.460000e+00 -2.357481e-06
-3.450000e+00 -2.390138e-06
-3.440001e+00 -2.423214e-06
-3.430000e+00 -2.456709e-06
-3.420000e+00 -2.490621e-06
-3.410000e+00 -2.524947e-06
-3.400001e+00 -2.559685e-06
-3.390000e+00 -2.594833e-06
-3.380000e+00 -2.630388e-06
-3.370000e+00 -2.666347e-06
-3.360001e+00 -2.702707e-06
-3.350000e+00 -2.739467e-06
-3.340000e+00 -2.776625e-06
-3.330000e+00 -2.814180e-06
-3.320001e+00 -2.852130e-06
-3.310000e+00 -2.890477e-06
-3.300000e+00 -2.929220e-06
-3.290000e+00 -2.968361e-06
-3.280000e+00 -3.007903e-06
-3.270000e+00 -3.047849e-06
-3.260000e+00 -3.088204e-06
-3.250000e+00 -3.128971e-06
-3.240000e+00 -3.170159e-06
-3.230000e+00 -3.211773e-06
-3.220000e+00 -3.253821e-06
-3.210000e+00 -3.296311e-06
-3.200000e+00 -3.339253e-06
-3.190001e+00 -3.382656e-06
-3.180000e+00 -3.426532e-06
-3.170000e+00 -3.470889e-06
-3.160000e+00 -3.515739e-06
-3.150001e+00 -3.561094e-06
-3.140000e+00 -3.606963e-06
-3.130000e+00 -3.653360e-06
-3.120000e+00 -3.700294e-06
-3.110001e+00 -3.747776e-06
-3.100000e+00 -3.795815e-06
-3.090000e+00 -3.844424e-06
-3.080000e+00 -3.893609e-06
-3.070001e+00 -3.943380e-06
-3.060000e+00 -3.993745e-06
-3.050000e+00 -4.044710e-06
-3.040000e+00 -4.096283e-06
-3.030000e+00 -4.148468e-06
-3.020000e+00 -4.201271e-06
-3.010000e+00 -4.254694e-06
-3.000000e+00 -4.308742e-06
-2.990000e+00 -4.363416e-06
-2.980000e+00 -4.418717e-06
-2.970000e+00 -4.474648e-06
-2.960000e+00 -4.531207e-06
-2.950000e+00 -4.588395e-06
-2.940001e+00 -4.646211e-06
-2.930000e+00 -4.704654e-06
-2.920000e+00 -4.763723e-06
-2.910000e+00 -4.823416e-06
-2.900001e+00 -4.883733e-06
-2.890000e+00 -4.944671e-06
-2.880000e+00 -5.006229e-06
-2.870000e+00 -5.068409e-06
-2.860001e+00 -5.131208e-06
-2.850000e+00 -5.194626e-06
-2.840000e+00 -5.258664e-06
-2.830000e+00 -5.323323e-06
-2.820001e+00 -5.388606e-06
-2.810000e+00 -5.454513e-06
-2.800000e+00 -5.521048e-06
-2.790000e+00 -5.588216e-06
-2.780000e+00 -5.656019e-06
-2.770000e+00 -5.724465e-06
-2.760000e+00 -5.793557e-06
-2.750000e+00 -5.863303e-06
-2.740000e+00 -5.933709e-06
-2.730000e+00 -6.004782e-06
-2.720000e+00 -6.076531e-06
-2.710000e+00 -6.148964e-06
-2.700000e+00 -6.222088e-06
-2.690001e+00 -6.295912e-06
-2.680000e+00 -6.370446e-06
-2.670000e+00 -6.445698e-06
-2.660000e+00 -6.521675e-06
-2.650001e+00 -6.598388e-06
-2.640000e+00 -6.675843e-06
-2.630000e+00 -6.754049e-06
-2.620000e+00 -6.833013e-06
-2.610001e+00 -6.912742e-06
-2.600000e+00 -6.993243e-06
-2.590000e+00 -7.074523e-06
-2.580000e+00 -7.156585e-06
-2.570001e+00 -7.239436e-06
-2.560000e+00 -7.323081e-06
-2.550000e+00 -7.407522e-06
-2.540000e+00 -7.492765e-06
-2.530001e+00 -7.578811e-06
-2.520000e+00 -7.665663e-06
-2.510000e+00 -7.753325e-06
-2.500000e+00 -7.841799e-06
-2.490000e+00 -7.931084e-06
-2.480000e+00 -8.021185e-06
-2.470000e+00 -8.112101e-06
-2.460000e+00 -8.203836e-06
-2.450000e+00 -8.296390e-06
-2.440001e+00 -8.389766e-06
-2.430000e+00 -8.483965e-06
-2.420000e+00 -8.578990e-06
-2.410000e+00 -8.674844e-06
-2.400001e+00 -8.771532e-06
-2.390000e+00 -8.869054e-06
-2.380000e+00 -8.967418e-06
-2.370000e+00 -9.066624e-06
-2.360001e+00 -9.166683e-06
-2.350000e+00 -9.267595e-06
-2.340000e+00 -9.369372e-06
-2.330000e+00 -9.472015e-06
-2.320001e+00 -9.575536e-06
-2.310000e+00 -9.679938e-06
-2.300000e+00 -9.785233e-06
-2.290000e+00 -9.891427e-06
-2.280001e+00 -9.998528e-06
-2.270000e+00 -1.010655e-05
-2.260000e+00 -1.021549e-05
-2.250000e+00 -1.032537e-05
-2.240000e+00 -1.043619e-05
-2.230000e+00 -1.054795e-05
-2.220000e+00 -1.066068e-05
-2.210000e+00 -1.077437e-05
-2.200000e+00 -1.088904e-05
-2.190001e+00 -1.100468e-05
-2.180000e+00 -1.112131e-05
-2.170000e+00 -1.123893e-05
-2.160000e+00 -1.135754e-05
-2.150001e+00 -1.147715e-05
-2.140000e+00 -1.159776e-05
-2.130000e+00 -1.171937e-05
-2.120000e+00 -1.184199e-05
-2.110001e+00 -1.196561e-05
-2.100000e+00 -1.209024e-05
-2.090000e+00 -1.221587e-05
-2.080000e+00 -1.234251e-05
-2.070001e+00 -1.247015e-05
-2.060000e+00 -1.259879e-05
-2.050000e+00 -1.272843e-05
-2.040000e+00 -1.285906e-05
-2.030001e+00 -1.299068e-05
-2.020000e+00 -1.312330e-05
-2.010000e+00 -1.325690e-05
-2.000000e+00 -1.339148e-05
-1.990000e+00 -1.352704e-05
-1.980000e+00 -1.366359e-05
-1.970000e+00 -1.380111e-05
-1.960000e+00 -1.393960e-05
-1.950000e+00 -1.407907e-05
-1.940001e+00 -1.421952e-05
-1.930000e+00 -1.436094e-05
-1.920000e+00 -1.450333e-05
-1.910000e+00 -1.464671e-05
-1.900001e+00 -1.479106e-05
-1.890000e+00 -1.493640e-05
-1.880000e+00 -1.508273e-05
-1.870000e+00 -1.523004e-05
-1.860001e+00 -1.537836e-05
-1.850000e+00 -1.552768e-05
-1.840000e+00 -1.567801e-05
-1.830000e+00 -1.582936e-05
-1.820001e+00 -1.598172e-05
-1.810000e+00 -1.613512e-05
-1.800000e+00 -1.628955e-05
-1.790000e+00 -1.644502e-05
-1.780001e+00 -1.660155e-05
-1.770000e+00 -1.675913e-05
-1.760000e+00 -1.691777e-05
-1.750000e+00 -1.707749e-05
-1.740000e+00 -1.723828e-05
-1.730000e+00 -1.740014e-05
-1.720000e+00 -1.756309e-05
-1.710000e+00 -1.772712e-05
-1.700000e+00 -1.789224e-05
-1.690001e+00 -1.805845e-05
-1.680000e+00 -1.822575e-05
-1.670000e+00 -1.839413e-05
-1.660000e+00 -1.856361e-05
-1.650001e+00 -1.873418e-05
-1.640000e+00 -1.890582e-05
-1.630000e+00 -1.907856e-05
-1.620000e+00 -1.925236e-05
-1.610001e+00 -1.942725e-05
-1.600000e+00 -1.960320e-05
-1.590000e+00 -1.978021e-05
-1.580000e+00 -1.995828e-05
-1.570001e+00 -2.013741e-05
-1.560000e+00 -2.031758e-05
-1.550000e+00 -2.049879e-05
-1.540000e+00 -2.068104e-05
-1.530001e+00 -2.086431e-05
-1.520000e+00 -2.104861e-05
-1.510000e+00 -2.123393e-05
-1.500000e+00 -2.142027e-05
-1.490000e+00 -2.160762e-05
-1.480000e+00 -2.179597e-05
-1.470000e+00 -2.198532e-05
-1.460000e+00 -2.217568e-05
-1.450000e+00 -2.236705e-05
-1.440001e+00 -2.255941e-05
-1.430000e+00 -2.275277e-05
-1.420000e+00 -2.294713e-05
-1.410000e+00 -2.314249e-05
-1.400001e+00 -2.333885e-05
-1.390000e+00 -2.353621e-05
-1.380000e+00 -2.373458e-05
-1.370000e+00 -2.393394e-05
-1.360001e+00 -2.413432e-05
-1.350000e+00 -2.433570e-05
-1.340000e+00 -2.453808e-05
-1.330000e+00 -2.474148e-05
-1.320001e+00 -2.494588e-05
-1.310000e+00 -2.515129e-05
-1.300000e+00 -2.535771e-05
-1.290000e+00 -2.556513e-05
-1.280001e+00 -2.577355e-05
-1.270000e+00 -2.598297e-05
-1.260000e+00 -2.619338e-05
-1.250000e+00 -2.640478e-05
-1.240000e+00 -2.661716e-05
-1.230000e+00 -2.683051e-05
-1.220000e+00 -2.704482e-05