-1.200000e+01 0.000000e+00
-1.199000e+01 0.000000e+00
-1.198000e+01 0.000000e+00
-1.197000e+01 0.000000e+00
-1.196000e+01 0.000000e+00
-1.195000e+01 0.000000e+00
-1.194000e+01 0.000000e+00
-1.193000e+01 -5.131207e-39
-1.192000e+01 -8.655156e-38
-1.191000e+01 -7.782204e-37
-1.190000e+01 -4.946924e-36
-1.189000e+01 -2.490049e-35
-1.188000e+01 -1.054723e-34
-1.187000e+01 -3.903795e-34
-1.186000e+01 -1.295117e-33
-1.185000e+01 -3.922210e-33
-1.184000e+01 -1.099222e-32
-1.183000e+01 -2.881105e-32
-1.182000e+01 -7.121772e-32
-1.181000e+01 -1.671535e-31
-1.180000e+01 -3.745961e-31
-1.179000e+01 -8.052892e-31
-1.178000e+01 -1.667199e-30
-1.177000e+01 -3.335222e-30
-1.176000e+01 -6.465704e-30
-1.175000e+01 -1.217716e-29
-1.174000e+01 -2.232862e-29
-1.173000e+01 -3.993887e-29
-1.172000e+01 -6.980415e-29
-1.171000e+01 -1.193904e-28
-1.170000e+01 -2.000969e-28
-1.169000e+01 -3.290125e-28
-1.168000e+01 -5.313128e-28
-1.167000e+01 -8.434760e-28
-1.166000e+01 -1.317520e-27
-1.165000e+01 -2.026494e-27
-1.164000e+01 -3.071470e-27
-1.163000e+01 -4.590300e-27
-1.162000e+01 -6.768383e-27
-1.161000e+01 -9.851675e-27
-1.160000e+01 -1.416211e-26
-1.159000e+01 -2.011550e-26
-1.158000e+01 -2.824191e-26
-1.157000e+01 -3.920819e-26
-1.156000e+01 -5.384228e-26
-1.155000e+01 -7.315851e-26
-1.154000e+01 -9.838273e-26
-1.153000e+01 -1.309758e-25
-1.152000e+01 -1.726537e-25
-1.151000e+01 -2.254012e-25
-1.150000e+01 -2.914768e-25
-1.149000e+01 -3.734056e-25
-1.148000e+01 -4.739554e-25
-1.147000e+01 -5.960929e-25
-1.146000e+01 -7.429150e-25
-1.145000e+01 -9.175517e-25
-1.144000e+01 -1.123036e-24
-1.143000e+01 -1.362136e-24
-1.142000e+01 -1.637152e-24
-1.141000e+01 -1.949669e-24
-1.140000e+01 -2.300278e-24
-1.139000e+01 -2.688250e-24
-1.138000e+01 -3.111197e-24
-1.137000e+01 -3.564696e-24
-1.136000e+01 -4.041918e-24
-1.135000e+01 -4.533260e-24
-1.134000e+01 -5.026011e-24
-1.133000e+01 -5.504065e-24
-1.132000e+01 -5.947726e-24
-1.131000e+01 -6.333612e-24
-1.130000e+01 -6.634710e-24
-1.129000e+01 -6.820611e-24
-1.128000e+01 -6.857932e-24
-1.127000e+01 -6.710997e-24
-1.126000e+01 -6.342764e-24
-1.125000e+01 -5.716014e-24
-1.124000e+01 -4.794839e-24
-1.123000e+01 -3.546385e-24
-1.122000e+01 -1.942847e-24
-1.121000e+01 3.632268e-26
-1.120000e+01 2.402058e-24
-1.119000e+01 5.153248e-24
-1.118000e+01 8.274320e-24
-1.117000e+01 1.173296e-23
-1.116000e+01 1.547810e-23
-1.115000e+01 1.943829e-23
-1.114000e+01 2.352068e-23
-1.113000e+01 2.761063e-23
-1.112000e+01 3.157225e-23
-1.111000e+01 3.524991e-23
-1.110000e+01 3.847081e-23
-1.109000e+01 4.104882e-23
-1.108000e+01 4.278944e-23
-1.107000e+01 4.349603e-23
-1.106000e+01 4.297718e-23
-1.105000e+01 4.105501e-23
-1.104000e+01 3.757428e-23
-1.103000e+01 3.241209e-23
-1.102000e+01 2.548754e-23
-1.101000e+01 1.677134e-23
-1.100000e+01 6.294493e-24
-1.099000e+01 -5.844113e-24
-1.098000e+01 -1.947199e-23
-1.097000e+01 -3.433960e-23
-1.096000e+01 -5.011967e-23
-1.095000e+01 -6.640978e-23
-1.094000e+01 -8.273851e-23
-1.093000e+01 -9.857544e-23
-1.092000e+01 -1.133449e-22
-1.091000e+01 -1.264436e-22
-1.090000e+01 -1.372619e-22
-1.089000e+01 -1.452074e-22
-1.088000e+01 -1.497314e-22
-1.087000e+01 -1.503567e-22
-1.086000e+01 -1.467043e-22
-1.085000e+01 -1.385206e-22
-1.084000e+01 -1.257005e-22
-1.083000e+01 -1.083068e-22
-1.082000e+01 -8.658438e-23
-1.081000e+01 -6.096605e-23
-1.080000e+01 -3.207118e-23
-1.079000e+01 -6.940752e-25
-1.078000e+01 3.221738e-23
-1.077000e+01 6.559349e-23
-1.076000e+01 9.828461e-23
-1.075000e+01 1.291120e-22
-1.074000e+01 1.569267e-22
-1.073000e+01 1.806731e-22
-1.072000e+01 1.994566e-22
-1.071000e+01 2.126093e-22
-1.070000e+01 2.197528e-22
-1.069000e+01 2.208511e-22
-1.068000e+01 2.162520e-22
-1.067000e+01 2.067111e-22
-1.066000e+01 1.933944e-22
-1.065000e+01 1.778568e-22
-1.064000e+01 1.619938e-22
-1.063000e+01 1.479634e-22
-1.062000e+01 1.380799e-22
-1.061000e+01 1.346790e-22
-1.060000e+01 1.399584e-22
-1.059000e+01 1.557984e-22
-1.058000e+01 1.835680e-22
-1.057000e+01 2.239274e-22
-1.056000e+01 2.766346e-22
-1.055000e+01 3.403696e-22
-1.054000e+01 4.125879e-22
-1.053000e+01 4.894167e-22
-1.052000e+01 5.656079e-22
-1.051000e+01 6.345589e-22
-1.050000e+01 6.884144e-22
-1.049000e+01 7.182564e-22
-1.048000e+01 7.143890e-22
-1.047000e+01 6.667201e-22
-1.046000e+01 5.652374e-22
-1.045000e+01 4.005711e-22
-1.044000e+01 1.646300e-22
-1.043000e+01 -1.487080e-22
-1.042000e+01 -5.428750e-22
-1.041000e+01 -1.017894e-21
-1.040000e+01 -1.569694e-21
-1.039000e+01 -2.189504e-21
-1.038000e+01 -2.863358e-21
-1.037000e+01 -3.571765e-21
-1.036000e+01 -4.289587e-21
-1.035000e+01 -4.986144e-21
-1.034000e+01 -5.625618e-21
-1.033000e+01 -6.167745e-21
-1.032000e+01 -6.568844e-21
-1.031000e+01 -6.783167e-21
-1.030000e+01 -6.764573e-21
-1.029000e+01 -6.468506e-21
-1.028000e+01 -5.854223e-21
-1.027000e+01 -4.887224e-21
-1.026000e+01 -3.541810e-21
-1.025000e+01 -1.803667e-21
-1.024000e+01 3.276222e-22
-1.023000e+01 2.836262e-21
-1.022000e+01 5.688255e-21
-1.021000e+01 8.829865e-21
-1.020000e+01 1.218668e-20
-1.019000e+01 1.566339e-20
-1.018000e+01 1.914438e-20
-1.017000e+01 2.249526e-20
-1.016000e+01 2.556545e-20
-1.015000e+01 2.819166e-20
-1.014000e+01 3.020257e-20
-1.013000e+01 3.142437e-20
-1.012000e+01 3.168728e-20
-1.011000e+01 3.083280e-20
-1.010000e+01 2.872154e-20
-1.009000e+01 2.524143e-20
-1.008000e+01 2.031589e-20
-1.007000e+01 1.391187e-20
-1.006000e+01 6.047150e-21
-1.005000e+01 -3.203213e-21
-1.004000e+01 -1.370192e-20
-1.003000e+01 -2.524610e-20
-1.002000e+01 -3.756613e-20
-1.001000e+01 -5.032680e-20
-1.000000e+01 -6.313117e-20
-9.990000e+00 -7.552720e-20
-9.980000e+00 -8.701737e-20
-9.970000e+00 -9.707121e-20
-9.960000e+00 -1.051405e-19
-9.950000e+00 -1.106775e-19
-9.940001e+00 -1.131543e-19
-9.930000e+00 -1.120853e-19
-9.920000e+00 -1.070497e-19
-9.910000e+00 -9.771461e-20
-9.900000e+00 -8.385785e-20
-9.890000e+00 -6.538914e-20
-9.880000e+00 -4.236913e-20
-9.870000e+00 -1.502504e-20
-9.860001e+00 1.623792e-20
-9.850000e+00 5.083025e-20
-9.840000e+00 8.797781e-20
-9.830000e+00 1.267280e-19
-9.820000e+00 1.659632e-19
-9.809999e+00 2.044213e-19
-9.800000e+00 2.407236e-19
-9.790000e+00 2.734103e-19
-9.780000e+00 3.009822e-19
-9.770000e+00 3.219479e-19
-9.760000e+00 3.348768e-19
-9.750000e+00 3.384541e-19
-9.740000e+00 3.315384e-19
-9.730000e+00 3.132183e-19
-9.720000e+00 2.828675e-19
-9.710000e+00 2.401952e-19
-9.700000e+00 1.852890e-19
-9.690001e+00 1.186506e-19
-9.680000e+00 4.121921e-20
-9.670000e+00 -4.561719e-20
-9.660000e+00 -1.400249e-19
-9.650000e+00 -2.397434e-19
-9.640000e+00 -3.421201e-19
-9.630000e+00 -4.441624e-19
-9.620000e+00 -5.426048e-19
-9.610001e+00 -6.339930e-19
-9.600000e+00 -7.147806e-19
-9.590000e+00 -7.814373e-19
-9.580000e+00 -8.305675e-19
-9.570000e+00 -8.590325e-19
-9.559999e+00 -8.640765e-19
-9.550000e+00 -8.434490e-19
-9.540000e+00 -7.955206e-19
-9.530000e+00 -7.193886e-19
-9.520000e+00 -6.149655e-19
-9.510000e+00 -4.830486e-19
-9.500000e+00 -3.253655e-19
-9.490000e+00 -1.445912e-19
-9.480000e+00 5.566305e-20
-9.470000e+00 2.708945e-19
-9.460000e+00 4.957850e-19
-9.450000e+00 7.243114e-19
-9.440001e+00 9.498851e-19
-9.430000e+00 1.165523e-18
-9.420000e+00 1.364039e-18
-9.410000e+00 1.538265e-18
-9.400000e+00 1.681272e-18
-9.390000e+00 1.786613e-18
-9.380000e+00 1.848556e-18
-9.370000e+00 1.862318e-18
-9.360001e+00 1.824270e-18
-9.350000e+00 1.732132e-18
-9.340000e+00 1.585128e-18
-9.330000e+00 1.384096e-18
-9.320000e+00 1.131566e-18
-9.309999e+00 8.317752e-19
-9.300000e+00 4.906298e-19
-9.290000e+00 1.156152e-19
-9.280000e+00 -2.843561e-19
-9.270000e+00 -6.991499e-19
-9.260000e+00 -1.117667e-18
-9.250000e+00 -1.528146e-18
-9.240000e+00 -1.918503e-18
-9.230000e+00 -2.276697e-18
-9.220000e+00 -2.591117e-18
-9.210000e+00 -2.850969e-18
-9.200000e+00 -3.046651e-18
-9.190001e+00 -3.170114e-18
-9.180000e+00 -3.215179e-18
-9.170000e+00 -3.177803e-18
-9.160000e+00 -3.056293e-18
-9.150000e+00 -2.851439e-18
-9.140000e+00 -2.566570e-18
-9.130000e+00 -2.207529e-18
-9.120000e+00 -1.782551e-18
-9.110001e+00 -1.302060e-18
-9.100000e+00 -7.783774e-19
-9.090000e+00 -2.253602e-19
-9.080000e+00 3.420387e-19
-9.070000e+00 9.082550e-19
-9.060000e+00 1.457638e-18
-9.050000e+00 1.974996e-18
-9.040000e+00 2.446138e-18
-9.030000e+00 2.858396e-18
-9.020000e+00 3.201099e-18
-9.010000e+00 3.465992e-18
-9.000000e+00 3.647562e-18
-8.990000e+00 3.743264e-18
-8.980000e+00 3.753641e-18
-8.970000e+00 3.682313e-18
-8.960000e+00 3.535830e-18
-8.950000e+00 3.323409e-18
-8.940001e+00 3.056528e-18
-8.930000e+00 2.748422e-18
-8.920000e+00 2.413462e-18
-8.910000e+00 2.066469e-18
-8.900000e+00 1.721968e-18
-8.890000e+00 1.393423e-18
-8.880000e+00 1.092479e-18
-8.870000e+00 8.282506e-19
-8.860001e+00 6.066953e-19
-8.850000e+00 4.300966e-19
-8.840000e+00 2.966998e-19
-8.830000e+00 2.005234e-19
-8.820000e+00 1.313734e-19
-8.810000e+00 7.507440e-20
-8.800000e+00 1.392929e-20
-8.790000e+00 -7.259420e-20
-8.780000e+00 -2.069582e-19
-8.770000e+00 -4.124515e-19
-8.760000e+00 -7.119174e-19
-8.750000e+00 -1.126354e-18
-8.740000e+00 -1.673435e-18
-8.730000e+00 -2.366007e-18
-8.720000e+00 -3.210635e-18
-8.710000e+00 -4.206250e-18
-8.700000e+00 -5.342988e-18
-8.690001e+00 -6.601274e-18
-8.680000e+00 -7.951234e-18
-8.670000e+00 -9.352481e-18
-8.660000e+00 -1.075435e-17
-8.650000e+00 -1.209658e-17
-8.640000e+00 -1.331055e-17
-8.630000e+00 -1.432098e-17
-8.620000e+00 -1.504813e-17
-8.610001e+00 -1.541054e-17
-8.600000e+00 -1.532808e-17
-8.590000e+00 -1.472548e-17
-8.580000e+00 -1.353598e-17
-8.570000e+00 -1.170520e-17
-8.560000e+00 -9.195015e-18
-8.550000e+00 -5.987251e-18
-8.540000e+00 -2.087115e-18
-8.530000e+00 2.473834e-18
-8.520000e+00 7.635335e-18
-8.510000e+00 1.330686e-17
-8.500000e+00 1.936694e-17
-8.490000e+00 2.566357e-17
-8.480000e+00 3.201577e-17
-8.470000e+00 3.821634e-17
-8.460000e+00 4.403589e-17
-8.450000e+00 4.922814e-17
-8.440001e+00 5.353646e-17
-8.430000e+00 5.670149e-17
-8.420000e+00 5.846974e-17
-8.410000e+00 5.860305e-17
-8.400000e+00 5.688849e-17
-8.390000e+00 5.314868e-17
-8.380000e+00 4.725193e-17
-8.370000e+00 3.912208e-17
-8.360001e+00 2.874752e-17
-8.350000e+00 1.618916e-17
-8.340000e+00 1.586707e-18
-8.330000e+00 -1.483678e-17
-8.320000e+00 -3.277269e-17
-8.310000e+00 -5.182725e-17
-8.300000e+00 -7.152459e-17
-8.290000e+00 -9.131300e-17
-8.280000e+00 -1.105741e-16
-8.270000e+00 -1.286355e-16
-8.260000e+00 -1.447860e-16
-8.250000e+00 -1.582942e-16
-8.240000e+00 -1.684294e-16
-8.230000e+00 -1.744849e-16
-8.220000e+00 -1.758029e-16
-8.210000e+00 -1.718004e-16
-8.200000e+00 -1.619954e-16
-8.190001e+00 -1.460335e-16
-8.180000e+00 -1.237118e-16
-8.170000e+00 -9.500196e-17
-8.160000e+00 -6.006949e-17
-8.150000e+00 -1.928937e-17
-8.140000e+00 2.674330e-17
-8.130000e+00 7.720827e-17
-8.120000e+00 1.310614e-16
-8.110001e+00 1.870432e-16
-8.100000e+00 2.436939e-16
-8.090000e+00 2.993772e-16
-8.080000e+00 3.523112e-16
-8.070000e+00 4.006064e-16
-8.060000e+00 4.423116e-16
-8.050000e+00 4.754656e-16
-8.040000e+00 4.981543e-16
-8.030000e+00 5.085729e-16
-8.020000e+00 5.050895e-16
-8.010000e+00 4.863116e-16
-8.000000e+00 4.511506e-16
-7.990000e+00 3.988849e-16
-7.980000e+00 3.292172e-16
-7.970000e+00 2.423262e-16
-7.960000e+00 1.389086e-16
-7.950000e+00 2.021052e-17
-7.940000e+00 -1.119543e-16
-7.930000e+00 -2.552003e-16
-7.920000e+00 -4.065828e-16
-7.910000e+00 -5.626274e-16
-7.900000e+00 -7.193775e-16
-7.890000e+00 -8.724603e-16
-7.880000e+00 -1.017171e-15
-7.870000e+00 -1.148572e-15
-7.860000e+00 -1.261614e-15
-7.850000e+00 -1.351265e-15
-7.840000e+00 -1.412654e-15
-7.830000e+00 -1.441221e-15
-7.820000e+00 -1.432881e-15
-7.810000e+00 -1.384173e-15
-7.800000e+00 -1.292423e-15
-7.790000e+00 -1.155890e-15
-7.780000e+00 -9.738992e-16
-7.770000e+00 -7.469625e-16
-7.760000e+00 -4.768727e-16
-7.750000e+00 -1.667733e-16
-7.740000e+00 1.788043e-16
-7.730000e+00 5.539374e-16
-7.720000e+00 9.513475e-16
-7.710000e+00 1.362475e-15
-7.700000e+00 1.777599e-15
-7.690000e+00 2.185991e-15
-7.680000e+00 2.576122e-15
-7.670000e+00 2.935897e-15
-7.660000e+00 3.252936e-15
-7.650000e+00 3.514879e-15
-7.640000e+00 3.709718e-15
-7.630000e+00 3.826152e-15
-7.620000e+00 3.853954e-15
-7.610000e+00 3.784331e-15
-7.600000e+00 3.610284e-15
-7.590000e+00 3.326951e-15
-7.580000e+00 2.931917e-15
-7.570000e+00 2.425485e-15
-7.560000e+00 1.810900e-15
-7.550000e+00 1.094509e-15
-7.540000e+00 2.858578e-16
-7.530000e+00 -6.022955e-16
-7.520000e+00 -1.554048e-15
-7.510000e+00 -2.550509e-15
-7.500000e+00 -3.570046e-15
-7.490000e+00 -4.588627e-15
-7.480000e+00 -5.580252e-15
-7.470000e+00 -6.517466e-15
-7.460000e+00 -7.371959e-15
-7.450000e+00 -8.115224e-15
-7.440000e+00 -8.719289e-15
-7.430000e+00 -9.157467e-15
-7.420000e+00 -9.405163e-15
-7.410000e+00 -9.440652e-15
-7.400000e+00 -9.245876e-15
-7.390000e+00 -8.807179e-15
-7.380000e+00 -8.116002e-15
-7.370000e+00 -7.169492e-15
-7.360000e+00 -5.971005e-15
-7.350000e+00 -4.530494e-15
-7.340000e+00 -2.864749e-15
-7.330000e+00 -9.974832e-16
-7.320000e+00 1.040755e-15
-7.310000e+00 3.212849e-15
-7.300000e+00 5.475574e-15
-7.290000e+00 7.780240e-15
-7.280000e+00 1.007352e-14
-7.270000e+00 1.229847e-14
-7.260000e+00 1.439569e-14
-7.250000e+00 1.630463e-14
-7.240000e+00 1.796506e-14
-7.230000e+00 1.931857e-14
-7.220000e+00 2.031017e-14
-7.210000e+00 2.088988e-14
-7.200000e+00 2.101436e-14
-7.190000e+00 2.064840e-14
-7.180000e+00 1.976637e-14
-7.170000e+00 1.835349e-14
-7.160000e+00 1.640695e-14
-7.150000e+00 1.393673e-14
-7.140000e+00 1.096625e-14
-7.130000e+00 7.532615e-15
-7.120000e+00 3.686654e-15
-7.110000e+00 -5.074905e-16
-7.100000e+00 -4.973066e-15
-7.090000e+00 -9.621796e-15
-7.080000e+00 -1.435531e-14
-7.070000e+00 -1.906694e-14
-7.060000e+00 -2.364376e-14
-7.050000e+00 -2.796903e-14
-7.040000e+00 -3.192477e-14
-7.030000e+00 -3.539454e-14
-7.020000e+00 -3.826640e-14
-7.010000e+00 -4.043590e-14
-7.000000e+00 -4.180904e-14
-6.990000e+00 -4.230518e-14
-6.980000e+00 -4.185974e-14
-6.970000e+00 -4.042675e-14
-6.960000e+00 -3.798100e-14
-6.950000e+00 -3.451979e-14
-6.940000e+00 -3.006434e-14
-6.930000e+00 -2.466055e-14
-6.920000e+00 -1.837933e-14
-6.910000e+00 -1.131621e-14
-6.900000e+00 -3.590426e-15
-6.890000e+00 4.656679e-15
-6.880000e+00 1.326384e-14
-6.870000e+00 2.205268e-14
-6.860000e+00 3.083106e-14
-6.850000e+00 3.939700e-14
-6.840000e+00 4.754290e-14
-6.830000e+00 5.506028e-14
-6.820000e+00 6.174464e-14
-6.810000e+00 6.740057e-14
-6.800000e+00 7.184675e-14
-6.790000e+00 7.492105e-14
-6.780000e+00 7.648523e-14
-6.770000e+00 7.642932e-14
-6.760000e+00 7.467566e-14
-6.750000e+00 7.118216e-14
-6.740000e+00 6.594498e-14
-6.730000e+00 5.900032e-14
-6.720000e+00 5.042542e-14
-6.710000e+00 4.033854e-14
-6.700000e+00 2.889800e-14
-6.690000e+00 1.630019e-14
-6.680000e+00 2.776580e-15
-6.670000e+00 -1.141021e-14
-6.660000e+00 -2.597130e-14
-6.650000e+00 -4.059722e-14
-6.640000e+00 -5.496433e-14
-6.630000e+00 -6.874187e-14
-6.620000e+00 -8.159938e-14
-6.610000e+00 -9.321449e-14
-6.600000e+00 -1.032808e-13
-6.590000e+00 -1.115154e-13
-6.580000e+00 -1.176670e-13
-6.570000e+00 -1.215223e-13
-6.560000e+00 -1.229125e-13
-6.550000e+00 -1.217192e-13
-6.540000e+00 -1.178787e-13
-6.530000e+00 -1.113852e-13
-6.520000e+00 -1.022932e-13
-6.510000e+00 -9.071827e-14
-6.500000e+00 -7.683596e-14
-6.490000e+00 -6.088009e-14
-6.480000e+00 -4.313887e-14
-6.470000e+00 -2.394992e-14
-6.460000e+00 -3.693894e-15
-6.450000e+00 1.721319e-14
-6.440000e+00 3.832864e-14
-6.430000e+00 5.919273e-14
-6.420000e+00 7.933897e-14
-6.410000e+00 9.830499e-14
-6.400000e+00 1.156435e-13
-6.390000e+00 1.309331e-13
-6.380000e+00 1.437892e-13
-6.370000e+00 1.538740e-13
-6.360000e+00 1.609054e-13
-6.350000e+00 1.646654e-13
-6.340000e+00 1.650069e-13
-6.330000e+00 1.618587e-13
-6.320000e+00 1.552290e-13
-6.310000e+00 1.452075e-13
-6.300000e+00 1.319645e-13
-6.290000e+00 1.157489e-13
-6.280000e+00 9.688448e-14
-6.270000e+00 7.576285e-14
-6.260000e+00 5.283617e-14
-6.250000e+00 2.860719e-14
-6.240000e+00 3.618223e-15
-6.230000e+00 -2.156126e-14
-6.220000e+00 -4.634793e-14
-6.210000e+00 -7.015860e-14
-6.200000e+00 -9.242456e-14
-6.190000e+00 -1.126059e-13
-6.180000e+00 -1.302053e-13
-6.170000e+00 -1.447815e-13
-6.160000e+00 -1.559611e-13
-6.150000e+00 -1.634498e-13
-6.140000e+00 -1.670410e-13
-6.130000e+00 -1.666230e-13
-6.120000e+00 -1.621842e-13
-6.110000e+00 -1.538156e-13
-6.100000e+00 -1.417108e-13
-6.090000e+00 -1.261639e-13
-6.080000e+00 -1.075646e-13
-6.070000e+00 -8.639097e-14
-6.060000e+00 -6.319973e-14
-6.050000e+00 -3.861488e-14
-6.040000e+00 -1.331401e-14
-6.030000e+00 1.198669e-14
-6.020000e+00 3.654867e-14
-6.010000e+00 5.962817e-14
-6.000000e+00 8.049364e-14
-5.990000e+00 9.844329e-14
-5.980000e+00 1.128222e-13
-5.970000e+00 1.230383e-13
-5.960000e+00 1.285776e-13
-5.950000e+00 1.290171e-13
-5.940000e+00 1.240360e-13
-5.930000e+00 1.134248e-13
-5.920000e+00 9.709146e-14
-5.910000e+00 7.506459e-14
-5.900000e+00 4.749441e-14
-5.890000e+00 1.465015e-14
-5.880000e+00 -2.308524e-14
-5.870000e+00 -6.522331e-14
-5.860000e+00 -1.111809e-13
-5.850000e+00 -1.602935e-13
-5.840000e+00 -2.118306e-13
-5.830000e+00 -2.650130e-13
-5.820000e+00 -3.190312e-13
-5.810000e+00 -3.730650e-13
-5.800000e+00 -4.263034e-13
-5.790000e+00 -4.779641e-13
-5.780000e+00 -5.273133e-13
-5.770000e+00 -5.736834e-13
-5.760000e+00 -6.164899e-13
-5.750000e+00 -6.552459e-13
-5.740000e+00 -6.895748e-13
-5.730000e+00 -7.192193e-13
-5.720000e+00 -7.440490e-13
-5.710000e+00 -7.640629e-13
-5.700000e+00 -7.793906e-13
-5.690000e+00 -7.902887e-13
-5.680000e+00 -7.971345e-13
-5.670000e+00 -8.004174e-13
-5.660000e+00 -8.007253e-13
-5.650000e+00 -7.987310e-13
-5.640000e+00 -7.951744e-13
-5.630000e+00 -7.908437e-13
-5.620000e+00 -7.865551e-13
-5.610000e+00 -7.831322e-13
-5.600000e+00 -7.813839e-13
-5.590000e+00 -7.820839e-13
-5.580000e+00 -7.859503e-13
-5.570000e+00 -7.936264e-13
-5.560000e+00 -8.056641e-13
-5.550000e+00 -8.225088e-13
-5.540000e+00 -8.444875e-13
-5.530000e+00 -8.717998e-13
-5.520000e+00 -9.045119e-13
-5.510000e+00 -9.425548e-13
-5.500000e+00 -9.857251e-13
-5.490000e+00 -1.033690e-12
-5.480000e+00 -1.085996e-12
-5.470000e+00 -1.142080e-12
-5.460000e+00 -1.201282e-12
-5.450000e+00 -1.262866e-12
-5.440000e+00 -1.326036e-12
-5.430000e+00 -1.389957e-12
-5.420000e+00 -1.453780e-12
-5.410000e+00 -1.516661e-12
-5.400000e+00 -1.577787e-12
-5.390000e+00 -1.636392e-12
-5.380000e+00 -1.691788e-12
-5.370000e+00 -1.743375e-12
-5.360000e+00 -1.790660e-12
-5.350000e+00 -1.833275e-12
-5.340000e+00 -1.870986e-12
-5.330000e+00 -1.903697e-12
-5.320000e+00 -1.931462e-12
-5.310000e+00 -1.954477e-12
-5.300000e+00 -1.973084e-12
-5.290000e+00 -1.987758e-12
-5.280000e+00 -1.999102e-12
-5.270000e+00 -2.007828e-12
-5.260000e+00 -2.014744e-12
-5.250000e+00 -2.020732e-12
-5.240000e+00 -2.026729e-12
-5.230000e+00 -2.033703e-12
-5.220000e+00 -2.042627e-12
-5.210000e+00 -2.054460e-12
-5.200000e+00 -2.070117e-12
-5.190000e+00 -2.090451e-12
-5.180000e+00 -2.116230e-12
-5.170000e+00 -2.148115e-12
-5.160000e+00 -2.186646e-12
-5.150000e+00 -2.232229e-12
-5.140000e+00 -2.285120e-12
-5.130000e+00 -2.345426e-12
-5.120000e+00 -2.413095e-12
-5.110000e+00 -2.487919e-12
-5.100000e+00 -2.569539e-12
-5.090000e+00 -2.657453e-12
-5.080000e+00 -2.751030e-12
-5.070000e+00 -2.849519e-12
-5.060000e+00 -2.952074e-12
-5.050000e+00 -3.057773e-12
-5.040000e+00 -3.165636e-12
-5.030000e+00 -3.274654e-12
-5.020000e+00 -3.383810e-12
-5.010000e+00 -3.492108e-12
-5.000000e+00 -3.598591e-12
-4.990000e+00 -3.702372e-12
-4.980000e+00 -3.802648e-12
-4.970000e+00 -3.898726e-12
-4.960000e+00 -3.990035e-12
-4.950000e+00 -4.076145e-12
-4.940000e+00 -4.156773e-12
-4.930000e+00 -4.231792e-12
-4.920000e+00 -4.301236e-12
-4.910000e+00 -4.365298e-12
-4.900000e+00 -4.424325e-12
-4.890000e+00 -4.478812e-12
-4.880000e+00 -4.529391e-12
-4.870000e+00 -4.576815e-12
-4.860000e+00 -4.621948e-12
-4.850000e+00 -4.665734e-12
-4.840000e+00 -4.709187e-12
-4.830000e+00 -4.753366e-12
-4.820000e+00 -4.799348e-12
-4.810000e+00 -4.848210e-12
-4.800000e+00 -4.901005e-12
-4.790000e+00 -4.958743e-12
-4.780000e+00 -5.022364e-12
-4.770000e+00 -5.092727e-12
-4.760000e+00 -5.170590e-12
-4.750000e+00 -5.256598e-12
-4.740000e+00 -5.351272e-12
-4.730000e+00 -5.455002e-12
-4.720000e+00 -5.568043e-12
-4.710000e+00 -5.690511e-12
-4.700000e+00 -5.822386e-12
-4.690000e+00 -5.963522e-12
-4.680000e+00 -6.113646e-12
-4.670000e+00 -6.272372e-12
-4.660000e+00 -6.439214e-12
-4.650000e+00 -6.613600e-12
-4.640000e+00 -6.794885e-12
-4.630000e+00 -6.982366e-12
-4.620000e+00 -7.175302e-12
-4.610000e+00 -7.372932e-12
-4.600000e+00 -7.574484e-12
-4.590000e+00 -7.779197e-12
-4.580000e+00 -7.986333e-12
-4.570000e+00 -8.195193e-12
-4.560000e+00 -8.405123e-12
-4.550000e+00 -8.615527e-12
-4.540000e+00 -8.825874e-12
-4.530000e+00 -9.035705e-12
-4.520000e+00 -9.244634e-12
-4.510000e+00 -9.452350e-12
-4.500000e+00 -9.658620e-12
-4.490000e+00 -9.863282e-12
-4.480000e+00 -1.006624e-11
-4.470000e+00 -1.026748e-11
-4.460000e+00 -1.046703e-11
-4.450000e+00 -1.066497e-11
-4.440000e+00 -1.086144e-11
-4.430000e+00 -1.105661e-11
-4.420000e+00 -1.125071e-11
-4.410000e+00 -1.144395e-11
-4.400000e+00 -1.163662e-11
-4.390000e+00 -1.182898e-11
-4.380000e+00 -1.202134e-11
-4.370000e+00 -1.221401e-11
-4.360000e+00 -1.240733e-11
-4.350000e+00 -1.260163e-11
-4.340000e+00 -1.279729e-11
-4.330000e+00 -1.299467e-11
-4.320000e+00 -1.319420e-11
-4.310000e+00 -1.339630e-11
-4.300000e+00 -1.360144e-11
-4.290000e+00 -1.381011e-11
-4.280000e+00 -1.402286e-11
-4.270000e+00 -1.424026e-11
-4.260000e+00 -1.446294e-11
-4.250000e+00 -1.469156e-11
-4.240000e+00 -1.492685e-11
-4.230000e+00 -1.516954e-11
-4.220000e+00 -1.542042e-11
-4.210000e+00 -1.568031e-11
-4.200000e+00 -1.595003e-11
-4.190000e+00 -1.623043e-11
-4.180000e+00 -1.652235e-11
-4.170000e+00 -1.682659e-11
-4.160000e+00 -1.714392e-11
-4.150000e+00 -1.747507e-11
-4.140000e+00 -1.782068e-11
-4.130000e+00 -1.818130e-11
-4.120000e+00 -1.855737e-11
-4.110000e+00 -1.894921e-11
-4.100000e+00 -1.935696e-11
-4.090000e+00 -1.978063e-11
-4.080000e+00 -2.022004e-11
-4.070000e+00 -2.067484e-11
-4.060000e+00 -2.114449e-11
-4.050000e+00 -2.162823e-11
-4.040000e+00 -2.212515e-11
-4.030000e+00 -2.263413e-11
-4.020000e+00 -2.315390e-11
-4.010000e+00 -2.368303e-11
-4.000000e+00 -2.421994e-11
-3.990000e+00 -2.476297e-11
-3.980000e+00 -2.531038e-11
-3.970000e+00 -2.586037e-11
-3.960000e+00 -2.641114e-11
-3.950000e+00 -2.696095e-11
-3.940001e+00 -2.750809e-11
-3.930000e+00 -2.805101e-11
-3.920000e+00 -2.858828e-11
-3.910000e+00 -2.911870e-11
-3.900001e+00 -2.964128e-11
-3.890000e+00 -3.015532e-11
-3.880000e+00 -3.066042e-11
-3.870000e+00 -3.115648e-11
-3.860001e+00 -3.164379e-11
-3.850000e+00 -3.212298e-11
-3.840000e+00 -3.259503e-11
-3.830000e+00 -3.306131e-11
-3.820001e+00 -3.352352e-11
-3.810000e+00 -3.398370e-11
-3.800000e+00 -3.444421e-11
-3.790000e+00 -3.490766e-11
-3.780000e+00 -3.537691e-11
-3.770000e+00 -3.585497e-11
-3.760000e+00 -3.634501e-11
-3.750000e+00 -3.685025e-11
-3.740000e+00 -3.737392e-11
-3.730000e+00 -3.791917e-11
-3.720000e+00 -3.848904e-11
-3.710000e+00 -3.908637e-11
-3.700000e+00 -3.971374e-11
-3.690001e+00 -4.037343e-11
-3.680000e+00 -4.106733e-11
-3.670000e+00 -4.179692e-11
-3.660000e+00 -4.256324e-11
-3.650001e+00 -4.336681e-11
-3.640000e+00 -4.420768e-11
-3.630000e+00 -4.508537e-11
-3.620000e+00 -4.599888e-11
-3.610001e+00 -4.694674e-11
-3.600000e+00 -4.792699e-11
-3.590000e+00 -4.893724e-11
-3.580000e+00 -4.997472e-11
-3.570001e+00 -5.103633e-11
-3.560000e+00 -5.211873e-11
-3.550000e+00 -5.321837e-11
-3.540000e+00 -5.433162e-11
-3.530000e+00 -5.545481e-11
-3.520000e+00 -5.658436e-11
-3.510000e+00 -5.771683e-11
-3.500000e+00 -5.884903e-11
-3.490000e+00 -5.997808e-11
-3.480000e+00 -6.110149e-11
-3.470000e+00 -6.221725e-11
-3.460000e+00 -6.332385e-11
-3.450000e+00 -6.442036e-11
-3.440001e+00 -6.550642e-11
-3.430000e+00 -6.658231e-11
-3.420000e+00 -6.764891e-11
-3.410000e+00 -6.870773e-11
-3.400001e+00 -6.976084e-11
-3.390000e+00 -7.081088e-11
-3.380000e+00 -7.186098e-11
-3.370000e+00 -7.291470e-11
-3.360001e+00 -7.397597e-11
-3.350000e+00 -7.504897e-11
-3.340000e+00 -7.613807e-11
-3.330000e+00 -7.724774e-11
-3.320001e+00 -7.838239e-11
-3.310000e+00 -7.954637e-11
-3.300000e+00 -8.074378e-11
-3.290000e+00 -8.197843e-11
-3.280000e+00 -8.325373e-11
-3.270000e+00 -8.457264e-11
-3.260000e+00 -8.593756e-11
-3.250000e+00 -8.735034e-11
-3.240000e+00 -8.881214e-11
-3.230000e+00 -9.032354e-11
-3.220000e+00 -9.188444e-11
-3.210000e+00 -9.349409e-11
-3.200000e+00 -9.515113e-11
-3.190001e+00 -9.685364e-11
-3.180000e+00 -9.859913e-11
-3.170000e+00 -1.003847e-10
-3.160000e+00 -1.022071e-10
-3.150001e+00 -1.040627e-10
-3.140000e+00 -1.059478e-10
-3.130000e+00 -1.078587e-10
-3.120000e+00 -1.097914e-10
-3.110001e+00 -1.117424e-10
-3.100000e+00 -1.137082e-10
-3.090000e+00 -1.156857e-10
-3.080000e+00 -1.176722e-10
-3.070001e+00 -1.196657e-10
-3.060000e+00 -1.216643e-10
-3.050000e+00 -1.236671e-10
-3.040000e+00 -1.256737e-10
-3.030000e+00 -1.276844e-10
-3.020000e+00 -1.297001e-10
-3.010000e+00 -1.317223e-10
-3.000000e+00 -1.337533e-10
-2.990000e+00 -1.357958e-10
-2.980000e+00 -1.378530e-10
-2.970000e+00 -1.399286e-10
-2.960000e+00 -1.420267e-10
-2.950000e+00 -1.441514e-10
-2.940001e+00 -1.463071e-10
-2.930000e+00 -1.484985e-10
-2.920000e+00 -1.507298e-10
-2.910000e+00 -1.530053e-10
-2.900001e+00 -1.553291e-10
-2.890000e+00 -1.577047e-10
-2.880000e+00 -1.601354e-10
-2.870000e+00 -1.626241e-10
-2.860001e+00 -1.651728e-10
-2.850000e+00 -1.677834e-10
-2.840000e+00 -1.704569e-10
-2.830000e+00 -1.731937e-10
-2.820001e+00 -1.759936e-10
-2.810000e+00 -1.788560e-10
-2.800000e+00 -1.817796e-10
-2.790000e+00 -1.847627e-10
-2.780000e+00 -1.878031e-10
-2.770000e+00 -1.908983e-10
-2.760000e+00 -1.940455e-10
-2.750000e+00 -1.972418e-10
-2.740000e+00 -2.004840e-10
-2.730000e+00 -2.037691e-10
-2.720000e+00 -2.070942e-10
-2.710000e+00 -2.104564e-10
-2.700000e+00 -2.138532e-10
-2.690001e+00 -2.172824e-10
-2.680000e+00 -2.207420e-10
-2.670000e+00 -2.242305e-10
-2.660000e+00 -2.277472e-10
-2.650001e+00 -2.312913e-10
-2.640000e+00 -2.348631e-10
-2.630000e+00 -2.384629e-10
-2.620000e+00 -2.420917e-10
-2.610001e+00 -2.457510e-10
-2.600000e+00 -2.494426e-10
-2.590000e+00 -2.531688e-10
-2.580000e+00 -2.569321e-10
-2.570001e+00 -2.607353e-10
-2.560000e+00 -2.645815e-10
-2.550000e+00 -2.684738e-10
-2.540000e+00 -2.724153e-10
-2.530001e+00 -2.764093e-10
-2.520000e+00 -2.804589e-10
-2.510000e+00 -2.845671e-10
-2.500000e+00 -2.887369e-10
-2.490000e+00 -2.929708e-10
-2.480000e+00 -2.972712e-10
-2.470000e+00 -3.016404e-10
-2.460000e+00 -3.060803e-10
-2.450000e+00 -3.105923e-10
-2.440001e+00 -3.151779e-10
-2.430000e+00 -3.198380e-10
-2.420000e+00 -3.245734e-10
-2.410000e+00 -3.293847e-10
-2.400001e+00 -3.342722e-10
-2.390000e+00 -3.392362e-10
-2.380000e+00 -3.442766e-10
-2.370000e+00 -3.493932e-10
-2.360001e+00 -3.545862e-10
-2.350000e+00 -3.598551e-10
-2.340000e+00 -3.651998e-10
-2.330000e+00 -3.706201e-10
-2.320001e+00 -3.761159e-10
-2.310000e+00 -3.816871e-10
-2.300000e+00 -3.873338e-10
-2.290000e+00 -3.930559e-10
-2.280001e+00 -3.988537e-10
-2.270000e+00 -4.047273e-10
-2.260000e+00 -4.106770e-10
-2.250000e+00 -4.167033e-10
-2.240000e+00 -4.228065e-10
-2.230000e+00 -4.289870e-10
-2.220000e+00 -4.352455e-10
-2.210000e+00 -4.415822e-10
-2.200000e+00 -4.479977e-10
-2.190001e+00 -4.544925e-10
-2.180000e+00 -4.610670e-10
-2.170000e+00 -4.677216e-10
-2.160000e+00 -4.744567e-10
-2.150001e+00 -4.812726e-10
-2.140000e+00 -4.881697e-10
-2.130000e+00 -4.951484e-10
-2.120000e+00 -5.022089e-10
-2.110001e+00 -5.093516e-10
-2.100000e+00 -5.165769e-10
-2.090000e+00 -5.238853e-10
-2.080000e+00 -5.312774e-10
-2.070001e+00 -5.387538e-10
-2.060000e+00 -5.463154e-10
-2.050000e+00 -5.539629e-10
-2.040000e+00 -5.616976e-10
-2.030001e+00 -5.695208e-10
-2.020000e+00 -5.774337e-10
-2.010000e+00 -5.854381e-10
-2.000000e+00 -5.935357e-10
-1.990000e+00 -6.017286e-10
-1.980000e+00 -6.100186e-10
-1.970000e+00 -6.184082e-10
-1.960000e+00 -6.268994e-10
-1.950000e+00 -6.354947e-10
-1.940001e+00 -6.441965e-10
-1.930000e+00 -6.530070e-10
-1.920000e+00 -6.619287e-10
-1.910000e+00 -6.709638e-10
-1.900001e+00 -6.801144e-10
-1.890000e+00 -6.893824e-10
-1.880000e+00 -6.987697e-10
-1.870000e+00 -7.082779e-10
-1.860001e+00 -7.179083e-10
-1.850000e+00 -7.276622e-10
-1.840000e+00 -7.375403e-10
-1.830000e+00 -7.475434e-10
-1.820001e+00 -7.576721e-10
-1.810000e+00 -7.679266e-10
-1.800000e+00 -7.783070e-10
-1.790000e+00 -7.888133e-10
-1.780001e+00 -7.994455e-10
-1.770000e+00 -8.102032e-10
-1.760000e+00 -8.210862e-10
-1.750000e+00 -8.320945e-10
-1.740000e+00 -8.432279e-10
-1.730000e+00 -8.544864e-10
-1.720000e+00 -8.658701e-10
-1.710000e+00 -8.773794e-10
-1.700000e+00 -8.890148e-10
-1.690001e+00 -9.007769e-10
-1.680000e+00 -9.126669e-10
-1.670000e+00 -9.246861e-10
-1.660000e+00 -9.368359e-10
-1.650001e+00 -9.491181e-10
-1.640000e+00 -9.615347e-10
-1.630000e+00 -9.740879e-10
-1.620000e+00 -9.867800e-10
-1.610001e+00 -9.996135e-10
-1.600000e+00 -1.012591e-09
-1.590000e+00 -1.025715e-09
-1.580000e+00 -1.038988e-09
-1.570001e+00 -1.052413e-09
-1.560000e+00 -1.065992e-09
-1.550000e+00 -1.079727e-09
-1.540000e+00 -1.093621e-09
-1.530001e+00 -1.107675e-09
-1.520000e+00 -1.121892e-09
-1.510000e+00 -1.136272e-09
-1.500000e+00 -1.150817e-09
-1.490000e+00 -1.165528e-09
-1.480000e+00 -1.180405e-09
-1.470000e+00 -1.195449e-09
-1.460000e+00 -1.210660e-09
-1.450000e+00 -1.226038e-09
-1.440001e+00 -1.241583e-09
-1.430000e+00 -1.257296e-09
-1.420000e+00 -1.273175e-09
-1.410000e+00 -1.289222e-09
-1.400001e+00 -1.305434e-09
-1.390000e+00 -1.321814e-09
-1.380000e+00 -1.338360e-09
-1.370000e+00 -1.355074e-09
-1.360001e+00 -1.371955e-09
-1.350000e+00 -1.389005e-09
-1.340000e+00 -1.406224e-09
-1.330000e+00 -1.423615e-09
-1.320001e+00 -1.441178e-09
-1.310000e+00 -1.458916e-09
-1.300000e+00 -1.476831e-09
-1.290000e+00 -1.494925e-09
-1.280001e+00 -1.513200e-09
-1.270000e+00 -1.531660e-09
-1.260000e+00 -1.550308e-09
-1.250000e+00 -1.569145e-09
-1.240000e+00 -1.588176e-09
-1.230000e+00 -1.607404e-09
-1.220000e+00 -1.626830e-09
-1.210000e+00 -1.646458e-09
-1.200000e+00 -1.666291e-09