-1.200000e+01 0.000000e+00
-1.199000e+01 0.000000e+00
-1.198000e+01 0.000000e+00
-1.197000e+01 0.000000e+00
-1.196000e+01 2.092226e-29
-1.195000e+01 -6.559004e-26
-1.194000e+01 -7.080420e-25
-1.193000e+01 -4.148682e-24
-1.192000e+01 -1.748291e-23
-1.191000e+01 -5.926206e-23
-1.190000e+01 -1.714693e-22
-1.189000e+01 -4.391336e-22
-1.188000e+01 -1.019740e-21
-1.187000e+01 -2.183985e-21
-1.186000e+01 -4.368153e-21
-1.185000e+01 -8.236346e-21
-1.184000e+01 -1.474799e-20
-1.183000e+01 -2.522245e-20
-1.182000e+01 -4.138864e-20
-1.181000e+01 -6.540310e-20
-1.180000e+01 -9.981596e-20
-1.179000e+01 -1.474611e-19
-1.178000e+01 -2.112444e-19
-1.177000e+01 -2.938048e-19
-1.176000e+01 -3.970240e-19
-1.175000e+01 -5.213686e-19
-1.174000e+01 -6.650558e-19
-1.173000e+01 -8.230485e-19
-1.172000e+01 -9.859005e-19
-1.171000e+01 -1.138496e-18
-1.170000e+01 -1.258748e-18
-1.169000e+01 -1.316339e-18
-1.168000e+01 -1.271634e-18
-1.167000e+01 -1.074875e-18
-1.166000e+01 -6.658424e-19
-1.165000e+01 2.587349e-20
-1.164000e+01 1.079808e-18
-1.163000e+01 2.582601e-18
-1.162000e+01 4.624871e-18
-1.161000e+01 7.296879e-18
-1.160000e+01 1.068290e-17
-1.159000e+01 1.485429e-17
-1.158000e+01 1.986142e-17
-1.157000e+01 2.572438e-17
-1.156000e+01 3.242310e-17
-1.155000e+01 3.988684e-17
-1.154000e+01 4.798384e-17
-1.153000e+01 5.651149e-17
-1.152000e+01 6.518780e-17
-1.151000e+01 7.364476e-17
-1.150000e+01 8.142451e-17
-1.149000e+01 8.797904e-17
-1.148000e+01 9.267402e-17
-1.147000e+01 9.479773e-17
-1.146000e+01 9.357540e-17
-1.145000e+01 8.818950e-17
-1.144000e+01 7.780606e-17
-1.143000e+01 6.160713e-17
-1.142000e+01 3.882875e-17
-1.141000e+01 8.803958e-18
-1.140000e+01 -2.899031e-17
-1.139000e+01 -7.488383e-17
-1.138000e+01 -1.289628e-16
-1.137000e+01 -1.910211e-16
-1.136000e+01 -2.605145e-16
-1.135000e+01 -3.365218e-16
-1.134000e+01 -4.177142e-16
-1.133000e+01 -5.023353e-16
-1.132000e+01 -5.881966e-16
-1.131000e+01 -6.726876e-16
-1.130000e+01 -7.528046e-16
-1.129000e+01 -8.251995e-16
-1.128000e+01 -8.862483e-16
-1.127000e+01 -9.321404e-16
-1.126000e+01 -9.589876e-16
-1.125000e+01 -9.629523e-16
-1.124000e+01 -9.403892e-16
-1.123000e+01 -8.880014e-16
-1.122000e+01 -8.030030e-16
-1.121000e+01 -6.832841e-16
-1.120000e+01 -5.275727e-16
-1.119000e+01 -3.355862e-16
-1.118000e+01 -1.081657e-16
-1.117000e+01 1.526137e-16
-1.116000e+01 4.433636e-16
-1.115000e+01 7.593411e-16
-1.114000e+01 1.094450e-15
-1.113000e+01 1.441291e-15
-1.112000e+01 1.791262e-15
-1.111000e+01 2.134712e-15
-1.110000e+01 2.461151e-15
-1.109000e+01 2.759504e-15
-1.108000e+01 3.018415e-15
-1.107000e+01 3.226597e-15
-1.106000e+01 3.373202e-15
-1.105000e+01 3.448219e-15
-1.104000e+01 3.442886e-15
-1.103000e+01 3.350080e-15
-1.102000e+01 3.164706e-15
-1.101000e+01 2.884038e-15
-1.100000e+01 2.508015e-15
-1.099000e+01 2.039469e-15
-1.098000e+01 1.484271e-15
-1.097000e+01 8.513938e-16
-1.096000e+01 1.528607e-16
-1.095000e+01 -5.964017e-16
-1.094000e+01 -1.378829e-15
-1.093000e+01 -2.174592e-15
-1.092000e+01 -2.962078e-15
-1.091000e+01 -3.718467e-15
-1.090000e+01 -4.420393e-15
-1.089000e+01 -5.044668e-15
-1.088000e+01 -5.569060e-15
-1.087000e+01 -5.973084e-15
-1.086000e+01 -6.238789e-15
-1.085000e+01 -6.351516e-15
-1.084000e+01 -6.300586e-15
-1.083000e+01 -6.079902e-15
-1.082000e+01 -5.688428e-15
-1.081000e+01 -5.130524e-15
-1.080000e+01 -4.416114e-15
-1.079000e+01 -3.560673e-15
-1.078000e+01 -2.585018e-15
-1.077000e+01 -1.514904e-15
-1.076000e+01 -3.804208e-16
-1.075000e+01 7.848005e-16
-1.074000e+01 1.944542e-15
-1.073000e+01 3.061104e-15
-1.072000e+01 4.096524e-15
-1.071000e+01 5.013868e-15
-1.070000e+01 5.778560e-15
-1.069000e+01 6.359694e-15
-1.068000e+01 6.731292e-15
-1.067000e+01 6.873439e-15
-1.066000e+01 6.773272e-15
-1.065000e+01 6.425763e-15
-1.064000e+01 5.834251e-15
-1.063000e+01 5.010710e-15
-1.062000e+01 3.975709e-15
-1.061000e+01 2.758060e-15
-1.060000e+01 1.394148e-15
-1.059000e+01 -7.304912e-17
-1.058000e+01 -1.595227e-15
-1.057000e+01 -3.120283e-15
-1.056000e+01 -4.594052e-15
-1.055000e+01 -5.962199e-15
-1.054000e+01 -7.172213e-15
-1.053000e+01 -8.175418e-15
-1.052000e+01 -8.928929e-15
-1.051000e+01 -9.397493e-15
-1.050000e+01 -9.555107e-15
-1.049000e+01 -9.386367e-15
-1.048000e+01 -8.887475e-15
-1.047000e+01 -8.066840e-15
-1.046000e+01 -6.945234e-15
-1.045000e+01 -5.555479e-15
-1.044000e+01 -3.941648e-15
-1.043000e+01 -2.157786e-15
-1.042000e+01 -2.661745e-16
-1.041000e+01 1.664806e-15
-1.040000e+01 3.563166e-15
-1.039000e+01 5.356065e-15
-1.038000e+01 6.972735e-15
-1.037000e+01 8.347473e-15
-1.036000e+01 9.422585e-15
-1.035000e+01 1.015116e-14
-1.034000e+01 1.049955e-14
-1.033000e+01 1.044944e-14
-1.032000e+01 9.999420e-15
-1.031000e+01 9.165960e-15
-1.030000e+01 7.983665e-15
-1.029000e+01 6.504842e-15
-1.028000e+01 4.798303e-15
-1.027000e+01 2.947401e-15
-1.026000e+01 1.047359e-15
-1.025000e+01 -7.980658e-16
-1.024000e+01 -2.480487e-15
-1.023000e+01 -3.891237e-15
-1.022000e+01 -4.926023e-15
-1.021000e+01 -5.489716e-15
-1.020000e+01 -5.501111e-15
-1.019000e+01 -4.897438e-15
-1.018000e+01 -3.638461e-15
-1.017000e+01 -1.709958e-15
-1.016000e+01 8.735794e-16
-1.015000e+01 4.067208e-15
-1.014000e+01 7.794855e-15
-1.013000e+01 1.194983e-14
-1.012000e+01 1.639656e-14
-1.011000e+01 2.097356e-14
-1.010000e+01 2.549767e-14
-1.009000e+01 2.976936e-14
-1.008000e+01 3.357912e-14
-1.007000e+01 3.671465e-14
-1.006000e+01 3.896865e-14
-1.005000e+01 4.014706e-14
-1.004000e+01 4.007734e-14
-1.003000e+01 3.861654e-14
-1.002000e+01 3.565889e-14
-1.001000e+01 3.114251e-14
-1.000000e+01 2.505507e-14
-9.990000e+00 1.743794e-14
-9.980000e+00 8.388790e-15
-9.970000e+00 -1.937692e-15
-9.960000e+00 -1.333108e-14
-9.950000e+00 -2.552850e-14
-9.940001e+00 -3.822004e-14
-9.930000e+00 -5.105609e-14
-9.920000e+00 -6.365658e-14
-9.910000e+00 -7.562185e-14
-9.900000e+00 -8.654485e-14
-9.890000e+00 -9.602431e-14
-9.880000e+00 -1.036786e-13
-9.870000e+00 -1.091595e-13
-9.860001e+00 -1.121660e-13
-9.850000e+00 -1.124568e-13
-9.840000e+00 -1.098620e-13
-9.830000e+00 -1.042925e-13
-9.820000e+00 -9.574737e-14
-9.809999e+00 -8.431896e-14
-9.800000e+00 -7.019454e-14
-9.790000e+00 -5.365524e-14
-9.780000e+00 -3.507159e-14
-9.770000e+00 -1.489582e-14
-9.760000e+00 6.348830e-15
-9.750000e+00 2.808191e-14
-9.740000e+00 4.968201e-14
-9.730000e+00 7.050525e-14
-9.720000e+00 8.990532e-14
-9.710000e+00 1.072546e-13
-9.700000e+00 1.219656e-13
-9.690001e+00 1.335120e-13
-9.680000e+00 1.414485e-13
-9.670000e+00 1.454292e-13
-9.660000e+00 1.452228e-13
-9.650000e+00 1.407252e-13
-9.640000e+00 1.319680e-13
-9.630000e+00 1.191230e-13
-9.620000e+00 1.025018e-13
-9.610001e+00 8.255150e-14
-9.600000e+00 5.984440e-14
-9.590000e+00 3.506422e-14
-9.580000e+00 8.987313e-15
-9.570000e+00 -1.753976e-14
-9.559999e+00 -4.362601e-14
-9.550000e+00 -6.836435e-14
-9.540000e+00 -9.086148e-14
-9.530000e+00 -1.102687e-13
-9.520000e+00 -1.258121e-13
-9.510000e+00 -1.368219e-13
-9.500000e+00 -1.427588e-13
-9.490000e+00 -1.432376e-13
-9.480000e+00 -1.380459e-13
-9.470000e+00 -1.271580e-13
-9.460000e+00 -1.107431e-13
-9.450000e+00 -8.916710e-14
-9.440001e+00 -6.298760e-14
-9.430000e+00 -3.294259e-14
-9.420000e+00 6.752556e-17
-9.410000e+00 3.500412e-14
-9.400000e+00 7.072008e-14
-9.390000e+00 1.059943e-13
-9.380000e+00 1.395698e-13
-9.370000e+00 1.701949e-13
-9.360001e+00 1.966653e-13
-9.350000e+00 2.178662e-13
-9.340000e+00 2.328131e-13
-9.330000e+00 2.406899e-13
-9.320000e+00 2.408820e-13
-9.309999e+00 2.330046e-13
-9.300000e+00 2.169243e-13
-9.290000e+00 1.927725e-13
-9.280000e+00 1.609510e-13
-9.270000e+00 1.221287e-13
-9.260000e+00 7.722912e-14
-9.250000e+00 2.740931e-14
-9.240000e+00 -2.596978e-14
-9.230000e+00 -8.138069e-14
-9.220000e+00 -1.371735e-13
-9.210000e+00 -1.916254e-13
-9.200000e+00 -2.429943e-13
-9.190001e+00 -2.895743e-13
-9.180000e+00 -3.297528e-13
-9.170000e+00 -3.620649e-13
-9.160000e+00 -3.852460e-13
-9.150000e+00 -3.982783e-13
-9.140000e+00 -4.004311e-13
-9.130000e+00 -3.912934e-13
-9.120000e+00 -3.707957e-13
-9.110001e+00 -3.392230e-13
-9.100000e+00 -2.972148e-13
-9.090000e+00 -2.457551e-13
-9.080000e+00 -1.861501e-13
-9.070000e+00 -1.199951e-13
-9.060000e+00 -4.913100e-14
-9.050000e+00 2.440808e-14
-9.040000e+00 9.845484e-14
-9.030000e+00 1.707747e-13
-9.020000e+00 2.391353e-13
-9.010000e+00 3.013777e-13
-9.000000e+00 3.554871e-13
-8.990000e+00 3.996598e-13
-8.980000e+00 4.323654e-13
-8.970000e+00 4.524017e-13
-8.960000e+00 4.589394e-13
-8.950000e+00 4.515562e-13
-8.940001e+00 4.302588e-13
-8.930000e+00 3.954904e-13
-8.920000e+00 3.481253e-13
-8.910000e+00 2.894490e-13
-8.900000e+00 2.211245e-13
-8.890000e+00 1.451463e-13
-8.880000e+00 6.378233e-14
-8.870000e+00 -2.049365e-14
-8.860001e+00 -1.050774e-13
-8.850000e+00 -1.873153e-13
-8.840000e+00 -2.645877e-13
-8.830000e+00 -3.343935e-13
-8.820000e+00 -3.944309e-13
-8.810000e+00 -4.426739e-13
-8.800000e+00 -4.774404e-13
-8.790000e+00 -4.974500e-13
-8.780000e+00 -5.018702e-13
-8.770000e+00 -4.903482e-13
-8.760000e+00 -4.630270e-13
-8.750000e+00 -4.205467e-13
-8.740000e+00 -3.640294e-13
-8.730000e+00 -2.950473e-13
-8.720000e+00 -2.155773e-13
-8.710000e+00 -1.279411e-13
-8.700000e+00 -3.473378e-14
-8.690001e+00 6.125728e-14
-8.680000e+00 1.571400e-13
-8.670000e+00 2.500097e-13
-8.660000e+00 3.370421e-13
-8.650000e+00 4.155842e-13
-8.640000e+00 4.832405e-13
-8.630000e+00 5.379507e-13
-8.620000e+00 5.780567e-13
-8.610001e+00 6.023580e-13
-8.600000e+00 6.101502e-13
-8.590000e+00 6.012489e-13
-8.580000e+00 5.759954e-13
-8.570000e+00 5.352460e-13
-8.560000e+00 4.803428e-13
-8.550000e+00 4.130695e-13
-8.540000e+00 3.355917e-13
-8.530000e+00 2.503846e-13
-8.520000e+00 1.601497e-13
-8.510000e+00 6.772493e-14
-8.500000e+00 -2.401121e-14
-8.490000e+00 -1.122357e-13
-8.480000e+00 -1.942758e-13
-8.470000e+00 -2.676985e-13
-8.460000e+00 -3.303913e-13
-8.450000e+00 -3.806329e-13
-8.440001e+00 -4.171487e-13
-8.430000e+00 -4.391526e-13
-8.420000e+00 -4.463703e-13
-8.410000e+00 -4.390456e-13
-8.400000e+00 -4.179281e-13
-8.390000e+00 -3.842436e-13
-8.380000e+00 -3.396469e-13
-8.370000e+00 -2.861609e-13
-8.360001e+00 -2.261011e-13
-8.350000e+00 -1.619910e-13
-8.340000e+00 -9.646933e-14
-8.330000e+00 -3.219341e-14
-8.320000e+00 2.825815e-14
-8.310000e+00 8.248006e-14
-8.300000e+00 1.283290e-13
-8.290000e+00 1.640025e-13
-8.280000e+00 1.881062e-13
-8.270000e+00 1.997064e-13
-8.260000e+00 1.983655e-13
-8.250000e+00 1.841604e-13
-8.240000e+00 1.576815e-13
-8.230000e+00 1.200138e-13
-8.220000e+00 7.269927e-14
-8.210000e+00 1.768300e-14
-8.200000e+00 -4.275603e-14
-8.190001e+00 -1.060864e-13
-8.180000e+00 -1.696153e-13
-8.170000e+00 -2.305862e-13
-8.160000e+00 -2.862793e-13
-8.150000e+00 -3.341111e-13
-8.140000e+00 -3.717304e-13
-8.130000e+00 -3.971053e-13
-8.120000e+00 -4.086008e-13
-8.110001e+00 -4.050413e-13
-8.100000e+00 -3.857582e-13
-8.090000e+00 -3.506185e-13
-8.080000e+00 -3.000355e-13
-8.070000e+00 -2.349593e-13
-8.060000e+00 -1.568483e-13
-8.050000e+00 -6.762300e-14
-8.040000e+00 3.039783e-14
-8.030000e+00 1.345746e-13
-8.020000e+00 2.420365e-13
-8.010000e+00 3.497795e-13
-8.000000e+00 4.547694e-13
-7.990000e+00 5.540466e-13
-7.980000e+00 6.448280e-13
-7.970000e+00 7.246034e-13
-7.960000e+00 7.912218e-13
-7.950000e+00 8.429660e-13
-7.940000e+00 8.786110e-13
-7.930000e+00 8.974660e-13
-7.920000e+00 8.993964e-13
-7.910000e+00 8.848271e-13
-7.900000e+00 8.547253e-13
-7.890000e+00 8.105646e-13
-7.880000e+00 7.542711e-13
-7.870000e+00 6.881531e-13
-7.860000e+00 6.148184e-13
-7.850000e+00 5.370804e-13
-7.840000e+00 4.578585e-13
-7.830000e+00 3.800734e-13
-7.820000e+00 3.065452e-13
-7.810000e+00 2.398943e-13
-7.800000e+00 1.824506e-13
-7.790000e+00 1.361747e-13
-7.780000e+00 1.025922e-13
-7.770000e+00 8.274526e-14
-7.760000e+00 7.716193e-14
-7.750000e+00 8.584524e-14
-7.740000e+00 1.082815e-13
-7.730000e+00 1.434682e-13
-7.720000e+00 1.899596e-13
-7.710000e+00 2.459291e-13
-7.700000e+00 3.092449e-13
-7.690000e+00 3.775571e-13
-7.680000e+00 4.483919e-13
-7.670000e+00 5.192500e-13
-7.660000e+00 5.877048e-13
-7.650000e+00 6.514972e-13
-7.640000e+00 7.086226e-13
-7.630000e+00 7.574075e-13
-7.620000e+00 7.965722e-13
-7.610000e+00 8.252770e-13
-7.600000e+00 8.431516e-13
-7.590000e+00 8.503036e-13
-7.580000e+00 8.473089e-13
-7.570000e+00 8.351830e-13
-7.560000e+00 8.153334e-13
-7.550000e+00 7.894968e-13
-7.540000e+00 7.596624e-13
-7.530000e+00 7.279849e-13
-7.520000e+00 6.966903e-13
-7.510000e+00 6.679780e-13
-7.500000e+00 6.439249e-13
-7.490000e+00 6.263922e-13
-7.480000e+00 6.169426e-13
-7.470000e+00 6.167682e-13
-7.460000e+00 6.266339e-13
-7.450000e+00 6.468374e-13
-7.440000e+00 6.771901e-13
-7.430000e+00 7.170170e-13
-7.420000e+00 7.651776e-13
-7.410000e+00 8.201071e-13
-7.400000e+00 8.798762e-13
-7.390000e+00 9.422679e-13
-7.380000e+00 1.004867e-12
-7.370000e+00 1.065162e-12
-7.360000e+00 1.120652e-12
-7.350000e+00 1.168955e-12
-7.340000e+00 1.207918e-12
-7.330000e+00 1.235716e-12
-7.320000e+00 1.250946e-12
-7.310000e+00 1.252700e-12
-7.300000e+00 1.240625e-12
-7.290000e+00 1.214963e-12
-7.280000e+00 1.176564e-12
-7.270000e+00 1.126880e-12
-7.260000e+00 1.067934e-12
-7.250000e+00 1.002259e-12
-7.240000e+00 9.328332e-13
-7.230000e+00 8.629710e-13
-7.220000e+00 7.962195e-13
-7.210000e+00 7.362309e-13
-7.200000e+00 6.866314e-13
-7.190000e+00 6.508859e-13
-7.180000e+00 6.321653e-13
-7.170000e+00 6.332204e-13
-7.160000e+00 6.562686e-13
-7.150000e+00 7.028960e-13
-7.140000e+00 7.739806e-13
-7.130000e+00 8.696396e-13
-7.120000e+00 9.892022e-13
-7.110000e+00 1.131210e-12
-7.100000e+00 1.293449e-12
-7.090000e+00 1.473001e-12
-7.080000e+00 1.666333e-12
-7.070000e+00 1.869403e-12
-7.060000e+00 2.077784e-12
-7.050000e+00 2.286812e-12
-7.040000e+00 2.491737e-12
-7.030000e+00 2.687888e-12
-7.020000e+00 2.870827e-12
-7.010000e+00 3.036511e-12
-7.000000e+00 3.181428e-12
-6.990000e+00 3.302730e-12
-6.980000e+00 3.398331e-12
-6.970000e+00 3.466994e-12
-6.960000e+00 3.508374e-12
-6.950000e+00 3.523040e-12
-6.940000e+00 3.512464e-12
-6.930000e+00 3.478972e-12
-6.920000e+00 3.425671e-12
-6.910000e+00 3.356343e-12
-6.900000e+00 3.275317e-12
-6.890000e+00 3.187317e-12
-6.880000e+00 3.097299e-12
-6.870000e+00 3.010273e-12
-6.860000e+00 2.931130e-12
-6.850000e+00 2.864462e-12
-6.840000e+00 2.814400e-12
-6.830000e+00 2.784464e-12
-6.820000e+00 2.777433e-12
-6.810000e+00 2.795247e-12
-6.800000e+00 2.838933e-12
-6.790000e+00 2.908566e-12
-6.780000e+00 3.003268e-12
-6.770000e+00 3.121241e-12
-6.760000e+00 3.259832e-12
-6.750000e+00 3.415631e-12
-6.740000e+00 3.584603e-12
-6.730000e+00 3.762239e-12
-6.720000e+00 3.943729e-12
-6.710000e+00 4.124149e-12
-6.700000e+00 4.298652e-12
-6.690000e+00 4.462660e-12
-6.680000e+00 4.612045e-12
-6.670000e+00 4.743304e-12
-6.660000e+00 4.853699e-12
-6.650000e+00 4.941388e-12
-6.640000e+00 5.005502e-12
-6.630000e+00 5.046210e-12
-6.620000e+00 5.064726e-12
-6.610000e+00 5.063290e-12
-6.600000e+00 5.045106e-12
-6.590000e+00 5.014239e-12
-6.580000e+00 4.975484e-12
-6.570000e+00 4.934205e-12
-6.560000e+00 4.896140e-12
-6.550000e+00 4.867207e-12
-6.540000e+00 4.853282e-12
-6.530000e+00 4.859980e-12
-6.520000e+00 4.892449e-12
-6.510000e+00 4.955163e-12
-6.500000e+00 5.051749e-12
-6.490000e+00 5.184832e-12
-6.480000e+00 5.355914e-12
-6.470000e+00 5.565300e-12
-6.460000e+00 5.812050e-12
-6.450000e+00 6.093992e-12
-6.440000e+00 6.407763e-12
-6.430000e+00 6.748901e-12
-6.420000e+00 7.111980e-12
-6.410000e+00 7.490775e-12
-6.400000e+00 7.878460e-12
-6.390000e+00 8.267828e-12
-6.380000e+00 8.651536e-12
-6.370000e+00 9.022349e-12
-6.360000e+00 9.373386e-12
-6.350000e+00 9.698363e-12
-6.340000e+00 9.991813e-12
-6.330000e+00 1.024928e-11
-6.320000e+00 1.046749e-11
-6.310000e+00 1.064446e-11
-6.300000e+00 1.077962e-11
-6.290000e+00 1.087380e-11
-6.280000e+00 1.092925e-11
-6.270000e+00 1.094957e-11
-6.260000e+00 1.093961e-11
-6.250000e+00 1.090533e-11
-6.240000e+00 1.085358e-11
-6.230000e+00 1.079191e-11
-6.220000e+00 1.072833e-11
-6.210000e+00 1.067102e-11
-6.200000e+00 1.062810e-11
-6.190000e+00 1.060731e-11
-6.180000e+00 1.061582e-11
-6.170000e+00 1.065995e-11
-6.160000e+00 1.074496e-11
-6.150000e+00 1.087491e-11
-6.140000e+00 1.105249e-11
-6.130000e+00 1.127897e-11
-6.120000e+00 1.155411e-11
-6.110000e+00 1.187623e-11
-6.100000e+00 1.224225e-11
-6.090000e+00 1.264778e-11
-6.080000e+00 1.308729e-11
-6.070000e+00 1.355433e-11
-6.060000e+00 1.404169e-11
-6.050000e+00 1.454170e-11
-6.040000e+00 1.504648e-11
-6.030000e+00 1.554821e-11
-6.020000e+00 1.603939e-11
-6.010000e+00 1.651309e-11
-6.000000e+00 1.696321e-11
-5.990000e+00 1.738465e-11
-5.980000e+00 1.777351e-11
-5.970000e+00 1.812718e-11
-5.960000e+00 1.844446e-11
-5.950000e+00 1.872555e-11
-5.940000e+00 1.897208e-11
-5.930000e+00 1.918698e-11
-5.920000e+00 1.937443e-11
-5.910000e+00 1.953966e-11
-5.900000e+00 1.968878e-11
-5.890000e+00 1.982857e-11
-5.880000e+00 1.996618e-11
-5.870000e+00 2.010895e-11
-5.860000e+00 2.026411e-11
-5.850000e+00 2.043854e-11
-5.840000e+00 2.063851e-11
-5.830000e+00 2.086950e-11
-5.820000e+00 2.113600e-11
-5.810000e+00 2.144134e-11
-5.800000e+00 2.178763e-11
-5.790000e+00 2.217564e-11
-5.780000e+00 2.260486e-11
-5.770000e+00 2.307347e-11
-5.760000e+00 2.357844e-11
-5.750000e+00 2.411569e-11
-5.740000e+00 2.468019e-11
-5.730000e+00 2.526619e-11
-5.720000e+00 2.586742e-11
-5.710000e+00 2.647737e-11
-5.700000e+00 2.708945e-11
-5.690000e+00 2.769730e-11
-5.680000e+00 2.829503e-11
-5.670000e+00 2.887736e-11
-5.660000e+00 2.943989e-11
-5.650000e+00 2.997923e-11
-5.640000e+00 3.049310e-11
-5.630000e+00 3.098044e-11
-5.620000e+00 3.144143e-11
-5.610000e+00 3.187748e-11
-5.600000e+00 3.229120e-11
-5.590000e+00 3.268626e-11
-5.580000e+00 3.306730e-11
-5.570000e+00 3.343973e-11
-5.560000e+00 3.380956e-11
-5.550000e+00 3.418318e-11
-5.540000e+00 3.456713e-11
-5.530000e+00 3.496787e-11
-5.520000e+00 3.539156e-11
-5.510000e+00 3.584386e-11
-5.500000e+00 3.632971e-11
-5.490000e+00 3.685321e-11
-5.480000e+00 3.741747e-11
-5.470000e+00 3.802448e-11
-5.460000e+00 3.867512e-11
-5.450000e+00 3.936911e-11
-5.440000e+00 4.010504e-11
-5.430000e+00 4.088048e-11
-5.420000e+00 4.169201e-11
-5.410000e+00 4.253545e-11
-5.400000e+00 4.340595e-11
-5.390000e+00 4.429823e-11
-5.380000e+00 4.520674e-11
-5.370000e+00 4.612590e-11
-5.360000e+00 4.705030e-11
-5.350000e+00 4.797486e-11
-5.340000e+00 4.889507e-11
-5.330000e+00 4.980710e-11
-5.320000e+00 5.070794e-11
-5.310000e+00 5.159550e-11
-5.300000e+00 5.246868e-11
-5.290000e+00 5.332738e-11
-5.280000e+00 5.417250e-11
-5.270000e+00 5.500586e-11
-5.260000e+00 5.583015e-11
-5.250000e+00 5.664881e-11
-5.240000e+00 5.746585e-11
-5.230000e+00 5.828576e-11
-5.220000e+00 5.911327e-11
-5.210000e+00 5.995320e-11
-5.200000e+00 6.081026e-11
-5.190000e+00 6.168893e-11
-5.180000e+00 6.259324e-11
-5.170000e+00 6.352666e-11
-5.160000e+00 6.449197e-11
-5.150000e+00 6.549118e-11
-5.140000e+00 6.652549e-11
-5.130000e+00 6.759525e-11
-5.120000e+00 6.869996e-11
-5.110000e+00 6.983834e-11
-5.100000e+00 7.100837e-11
-5.090000e+00 7.220745e-11
-5.080000e+00 7.343247e-11
-5.070000e+00 7.467994e-11
-5.060000e+00 7.594619e-11
-5.050000e+00 7.722751e-11
-5.040000e+00 7.852028e-11
-5.030000e+00 7.982116e-11
-5.020000e+00 8.112721e-11
-5.010000e+00 8.243600e-11
-5.000000e+00 8.374570e-11
-4.990000e+00 8.505519e-11
-4.980000e+00 8.636408e-11
-4.970000e+00 8.767271e-11
-4.960000e+00 8.898214e-11
-4.950000e+00 9.029415e-11
-4.940000e+00 9.161108e-11
-4.930000e+00 9.293580e-11
-4.920000e+00 9.427163e-11
-4.910000e+00 9.562210e-11
-4.900000e+00 9.699093e-11
-4.890000e+00 9.838182e-11
-4.880000e+00 9.979837e-11
-4.870000e+00 1.012439e-10
-4.860000e+00 1.027214e-10
-4.850000e+00 1.042333e-10
-4.840000e+00 1.057816e-10
-4.830000e+00 1.073676e-10
-4.820000e+00 1.089922e-10
-4.810000e+00 1.106555e-10
-4.800000e+00 1.123571e-10
-4.790000e+00 1.140961e-10
-4.780000e+00 1.158710e-10
-4.770000e+00 1.176803e-10
-4.760000e+00 1.195218e-10
-4.750000e+00 1.213937e-10
-4.740000e+00 1.232937e-10
-4.730000e+00 1.252201e-10
-4.720000e+00 1.271710e-10
-4.710000e+00 1.291452e-10
-4.700000e+00 1.311418e-10
-4.690000e+00 1.331602e-10
-4.680000e+00 1.352008e-10
-4.670000e+00 1.372640e-10
-4.660000e+00 1.393513e-10
-4.650000e+00 1.414641e-10
-4.640000e+00 1.436049e-10
-4.630000e+00 1.457760e-10
-4.620000e+00 1.479803e-10
-4.610000e+00 1.502206e-10
-4.600000e+00 1.524999e-10
-4.590000e+00 1.548211e-10
-4.580000e+00 1.571866e-10
-4.570000e+00 1.595986e-10
-4.560000e+00 1.620587e-10
-4.550000e+00 1.645682e-10
-4.540000e+00 1.671272e-10
-4.530000e+00 1.697355e-10
-4.520000e+00 1.723921e-10
-4.510000e+00 1.750952e-10
-4.500000e+00 1.778423e-10
-4.490000e+00 1.806303e-10
-4.480000e+00 1.834557e-10
-4.470000e+00 1.863143e-10
-4.460000e+00 1.892020e-10
-4.450000e+00 1.921144e-10
-4.440000e+00 1.950471e-10
-4.430000e+00 1.979961e-10
-4.420000e+00 2.009577e-10
-4.410000e+00 2.039289e-10
-4.400000e+00 2.069071e-10
-4.390000e+00 2.098909e-10
-4.380000e+00 2.128795e-10
-4.370000e+00 2.158732e-10
-4.360000e+00 2.188733e-10
-4.350000e+00 2.218822e-10
-4.340000e+00 2.249031e-10
-4.330000e+00 2.279401e-10
-4.320000e+00 2.309983e-10
-4.310000e+00 2.340832e-10
-4.300000e+00 2.372009e-10
-4.290000e+00 2.403579e-10
-4.280000e+00 2.435606e-10
-4.270000e+00 2.468157e-10
-4.260000e+00 2.501293e-10
-4.250000e+00 2.535072e-10
-4.240000e+00 2.569547e-10
-4.230000e+00 2.604762e-10
-4.220000e+00 2.640753e-10
-4.210000e+00 2.677545e-10
-4.200000e+00 2.715155e-10
-4.190000e+00 2.753588e-10
-4.180000e+00 2.792839e-10
-4.170000e+00 2.832894e-10
-4.160000e+00 2.873729e-10
-4.150000e+00 2.915313e-10
-4.140000e+00 2.957609e-10
-4.130000e+00 3.000575e-10
-4.120000e+00 3.044165e-10
-4.110000e+00 3.088334e-10
-4.100000e+00 3.133035e-10
-4.090000e+00 3.178228e-10
-4.080000e+00 3.223872e-10
-4.070000e+00 3.269936e-10
-4.060000e+00 3.316394e-10
-4.050000e+00 3.363227e-10
-4.040000e+00 3.410426e-10
-4.030000e+00 3.457991e-10
-4.020000e+00 3.505929e-10
-4.010000e+00 3.554257e-10
-4.000000e+00 3.602997e-10
-3.990000e+00 3.652179e-10
-3.980000e+00 3.701837e-10
-3.970000e+00 3.752010e-10
-3.960000e+00 3.802737e-10
-3.950000e+00 3.854059e-10
-3.940001e+00 3.906013e-10
-3.930000e+00 3.958635e-10
-3.920000e+00 4.011954e-10
-3.910000e+00 4.065995e-10
-3.900001e+00 4.120777e-10
-3.890000e+00 4.176308e-10
-3.880000e+00 4.232591e-10
-3.870000e+00 4.289619e-10
-3.860001e+00 4.347378e-10
-3.850000e+00 4.405849e-10
-3.840000e+00 4.465004e-10
-3.830000e+00 4.524812e-10
-3.820001e+00 4.585239e-10
-3.810000e+00 4.646249e-10
-3.800000e+00 4.707806e-10
-3.790000e+00 4.769879e-10
-3.780000e+00 4.832438e-10
-3.770000e+00 4.895460e-10
-3.760000e+00 4.958929e-10
-3.750000e+00 5.022839e-10
-3.740000e+00 5.087193e-10
-3.730000e+00 5.152003e-10
-3.720000e+00 5.217294e-10
-3.710000e+00 5.283098e-10
-3.700000e+00 5.349461e-10
-3.690001e+00 5.416435e-10
-3.680000e+00 5.484082e-10
-3.670000e+00 5.552466e-10
-3.660000e+00 5.621660e-10
-3.650001e+00 5.691737e-10
-3.640000e+00 5.762771e-10
-3.630000e+00 5.834833e-10
-3.620000e+00 5.907988e-10
-3.610001e+00 5.982297e-10
-3.600000e+00 6.057813e-10
-3.590000e+00 6.134577e-10
-3.580000e+00 6.212619e-10
-3.570001e+00 6.291958e-10
-3.560000e+00 6.372598e-10
-3.550000e+00 6.454532e-10
-3.540000e+00 6.537737e-10
-3.530000e+00 6.622180e-10
-3.520000e+00 6.707818e-10
-3.510000e+00 6.794598e-10
-3.500000e+00 6.882456e-10
-3.490000e+00 6.971327e-10
-3.480000e+00 7.061139e-10
-3.470000e+00 7.151819e-10
-3.460000e+00 7.243298e-10
-3.450000e+00 7.335507e-10
-3.440001e+00 7.428385e-10
-3.430000e+00 7.521878e-10
-3.420000e+00 7.615939e-10
-3.410000e+00 7.710536e-10
-3.400001e+00 7.805644e-10
-3.390000e+00 7.901255e-10
-3.380000e+00 7.997368e-10
-3.370000e+00 8.093997e-10
-3.360001e+00 8.191169e-10
-3.350000e+00 8.288917e-10
-3.340000e+00 8.387290e-10
-3.330000e+00 8.486337e-10
-3.320001e+00 8.586119e-10
-3.310000e+00 8.686697e-10
-3.300000e+00 8.788139e-10
-3.290000e+00 8.890508e-10
-3.280000e+00 8.993869e-10
-3.270000e+00 9.098282e-10
-3.260000e+00 9.203802e-10
-3.250000e+00 9.310479e-10
-3.240000e+00 9.418357e-10
-3.230000e+00 9.527473e-10
-3.220000e+00 9.637852e-10
-3.210000e+00 9.749518e-10
-3.200000e+00 9.862482e-10
-3.190001e+00 9.976751e-10
-3.180000e+00 1.009233e-09
-3.170000e+00 1.020921e-09
-3.160000e+00 1.032739e-09
-3.150001e+00 1.044686e-09
-3.140000e+00 1.056762e-09
-3.130000e+00 1.068965e-09
-3.120000e+00 1.081295e-09
-3.110001e+00 1.093752e-09
-3.100000e+00 1.106335e-09
-3.090000e+00 1.119047e-09
-3.080000e+00 1.131887e-09
-3.070001e+00 1.144857e-09
-3.060000e+00 1.157959e-09
-3.050000e+00 1.171196e-09
-3.040000e+00 1.184569e-09
-3.030000e+00 1.198083e-09
-3.020000e+00 1.211738e-09
-3.010000e+00 1.225539e-09
-3.000000e+00 1.239487e-09
-2.990000e+00 1.253585e-09
-2.980000e+00 1.267835e-09
-2.970000e+00 1.282236e-09
-2.960000e+00 1.296790e-09
-2.950000e+00 1.311496e-09
-2.940001e+00 1.326353e-09
-2.930000e+00 1.341358e-09
-2.920000e+00 1.356509e-09
-2.910000e+00 1.371802e-09
-2.900001e+00 1.387233e-09
-2.890000e+00 1.402797e-09
-2.880000e+00 1.418490e-09
-2.870000e+00 1.434305e-09
-2.860001e+00 1.450238e-09
-2.850000e+00 1.466283e-09
-2.840000e+00 1.482437e-09
-2.830000e+00 1.498695e-09
-2.820001e+00 1.515054e-09
-2.810000e+00 1.531511e-09
-2.800000e+00 1.548065e-09
-2.790000e+00 1.564716e-09
-2.780000e+00 1.581466e-09
-2.770000e+00 1.598315e-09
-2.760000e+00 1.615268e-09
-2.750000e+00 1.632329e-09
-2.740000e+00 1.649503e-09
-2.730000e+00 1.666797e-09
-2.720000e+00 1.684216e-09
-2.710000e+00 1.701770e-09
-2.700000e+00 1.719464e-09
-2.690001e+00 1.737307e-09
-2.680000e+00 1.755305e-09
-2.670000e+00 1.773466e-09
-2.660000e+00 1.791796e-09
-2.650001e+00 1.810301e-09
-2.640000e+00 1.828984e-09
-2.630000e+00 1.847849e-09
-2.620000e+00 1.866899e-09
-2.610001e+00 1.886134e-09
-2.600000e+00 1.905554e-09
-2.590000e+00 1.925158e-09
-2.580000e+00 1.944945e-09
-2.570001e+00 1.964910e-09
-2.560000e+00 1.985051e-09
-2.550000e+00 2.005362e-09
-2.540000e+00 2.025840e-09
-2.530001e+00 2.046481e-09
-2.520000e+00 2.067280e-09
-2.510000e+00 2.088233e-09
-2.500000e+00 2.109337e-09
-2.490000e+00 2.130590e-09
-2.480000e+00 2.151991e-09
-2.470000e+00 2.173538e-09
-2.460000e+00 2.195232e-09
-2.450000e+00 2.217075e-09
-2.440001e+00 2.239070e-09
-2.430000e+00 2.261221e-09
-2.420000e+00 2.283531e-09
-2.410000e+00 2.306006e-09
-2.400001e+00 2.328651e-09
-2.390000e+00 2.351472e-09
-2.380000e+00 2.374475e-09
-2.370000e+00 2.397665e-09
-2.360001e+00 2.421046e-09
-2.350000e+00 2.444623e-09
-2.340000e+00 2.468400e-09
-2.330000e+00 2.492377e-09
-2.320001e+00 2.516556e-09
-2.310000e+00 2.540937e-09
-2.300000e+00 2.565516e-09
-2.290000e+00 2.590292e-09
-2.280001e+00 2.615260e-09
-2.270000e+00 2.640413e-09
-2.260000e+00 2.665746e-09
-2.250000e+00 2.691251e-09
-2.240000e+00 2.716920e-09
-2.230000e+00 2.742746e-09
-2.220000e+00 2.768720e-09
-2.210000e+00 2.794835e-09
-2.200000e+00 2.821085e-09
-2.190001e+00 2.847464e-09
-2.180000e+00 2.873968e-09
-2.170000e+00 2.900593e-09
-2.160000e+00 2.927338e-09
-2.150001e+00 2.954205e-09
-2.140000e+00 2.981195e-09
-2.130000e+00 3.008312e-09
-2.120000e+00 3.035562e-09
-2.110001e+00 3.062952e-09
-2.100000e+00 3.090491e-09
-2.090000e+00 3.118189e-09
-2.080000e+00 3.146057e-09
-2.070001e+00 3.174104e-09
-2.060000e+00 3.202343e-09
-2.050000e+00 3.230784e-09
-2.040000e+00 3.259437e-09
-2.030001e+00 3.288312e-09
-2.020000e+00 3.317416e-09
-2.010000e+00 3.346755e-09
-2.000000e+00 3.376333e-09
-1.990000e+00 3.406154e-09
-1.980000e+00 3.436218e-09
-1.970000e+00 3.466522e-09
-1.960000e+00 3.497063e-09
-1.950000e+00 3.527835e-09
-1.940001e+00 3.558831e-09
-1.930000e+00 3.590042e-09
-1.920000e+00 3.621457e-09
-1.910000e+00 3.653066e-09
-1.900001e+00 3.684856e-09
-1.890000e+00 3.716818e-09
-1.880000e+00 3.748938e-09
-1.870000e+00 3.781208e-09
-1.860001e+00 3.813618e-09
-1.850000e+00 3.846159e-09
-1.840000e+00 3.878827e-09
-1.830000e+00 3.911615e-09
-1.820001e+00 3.944524e-09
-1.810000e+00 3.977552e-09
-1.800000e+00 4.010702e-09
-1.790000e+00 4.043979e-09
-1.780001e+00 4.077389e-09
-1.770000e+00 4.110938e-09
-1.760000e+00 4.144637e-09
-1.750000e+00 4.178496e-09
-1.740000e+00 4.212525e-09
-1.730000e+00 4.246735e-09
-1.720000e+00 4.281138e-09
-1.710000e+00 4.315742e-09
-1.700000e+00 4.350558e-09
-1.690001e+00 4.385592e-09
-1.680000e+00 4.420851e-09
-1.670000e+00 4.456339e-09
-1.660000e+00 4.492058e-09
-1.650001e+00 4.528006e-09
-1.640000e+00 4.564183e-09
-1.630000e+00 4.600581e-09
-1.620000e+00 4.637195e-09
-1.610001e+00 4.674016e-09
-1.600000e+00 4.711034e-09
-1.590000e+00 4.748237e-09
-1.580000e+00 4.785615e-09
-1.570001e+00 4.823153e-09
-1.560000e+00 4.860840e-09
-1.550000e+00 4.898664e-09
-1.540000e+00 4.936615e-09
-1.530001e+00 4.974684e-09
-1.520000e+00 5.012862e-09
-1.510000e+00 5.051144e-09
-1.500000e+00 5.089528e-09
-1.490000e+00 5.128013e-09
-1.480000e+00 5.166599e-09
-1.470000e+00 5.205291e-09
-1.460000e+00 5.244095e-09
-1.450000e+00 5.283021e-09
-1.440001e+00 5.322077e-09
-1.430000e+00 5.361275e-09
-1.420000e+00 5.400628e-09
-1.410000e+00 5.440149e-09
-1.400001e+00 5.479851e-09
-1.390000e+00 5.519747e-09
-1.380000e+00 5.559849e-09
-1.370000e+00 5.600166e-09
-1.360001e+00 5.640709e-09
-1.350000e+00 5.681484e-09
-1.340000e+00 5.722494e-09
-1.330000e+00 5.763742e-09
-1.320001e+00 5.805228e-09
-1.310000e+00 5.846948e-09
-1.300000e+00 5.888896e-09
-1.290000e+00 5.931063e-09
-1.280001e+00 5.973440e-09
-1.270000e+00 6.016013e-09
-1.260000e+00 6.058770e-09
-1.250000e+00 6.101695e-09
-1.240000e+00 6.144774e-09
-1.230000e+00 6.187991e-09
-1.220000e+00 6.231331e-09
-1.210000e+00 6.274781e-09
-1.200000e+00 6.318326e-09
-1.190001e+00 6.361958e-09
-1.180000e+00 6.405665e-09
-1.170000e+00 6.449441e-09
-1.160000e+00 6.493284e-09
-1.150001e+00 6.537189e-09
-1.140000e+00 6.581157e-09
-1.130000e+00 6.625192e-09
-1.120000e+00 6.669298e-09
-1.110001e+00 6.713482e-09
-1.100000e+00 6.757752e-09
-1.090000e+00 6.802118e-09
-1.080000e+00 6.846590e-09
-1.070001e+00 6.891178e-09
-1.060000e+00 6.935894e-09
-1.050000e+00 6.980745e-09
-1.040000e+00 7.025743e-09
-1.030001e+00 7.070893e-09
-1.020000e+00 7.116202e-09
-1.010000e+00 7.161674e-09
-1.000000e+00 7.207310e-09
-9.899998e-01 7.253110e-09
-9.800005e-01 7.299072e-09