-1.027876e-01 0.000000e+00
-1.026626e-01 0.000000e+00
-1.025376e-01 0.000000e+00
-1.024126e-01 0.000000e+00
-1.022876e-01 0.000000e+00
-1.021626e-01 0.000000e+00
-1.020376e-01 0.000000e+00
-1.019126e-01 0.000000e+00
-1.017876e-01 0.000000e+00
-1.016626e-01 0.000000e+00
-1.015376e-01 0.000000e+00
-1.014126e-01 0.000000e+00
-1.012876e-01 0.000000e+00
-1.011626e-01 0.000000e+00
-1.010376e-01 0.000000e+00
-1.009126e-01 0.000000e+00
-1.007876e-01 0.000000e+00
-1.006626e-01 0.000000e+00
-1.005376e-01 0.000000e+00
-1.004126e-01 0.000000e+00
-1.002876e-01 0.000000e+00
-1.001626e-01 0.000000e+00
-1.000376e-01 0.000000e+00
-9.991263e-02 0.000000e+00
-9.978763e-02 0.000000e+00
-9.966263e-02 0.000000e+00
-9.953763e-02 0.000000e+00
-9.941263e-02 0.000000e+00
-9.928763e-02 0.000000e+00
-9.916263e-02 0.000000e+00
-9.903763e-02 0.000000e+00
-9.891263e-02 0.000000e+00
-9.878763e-02 0.000000e+00
-9.866263e-02 0.000000e+00
-9.853763e-02 0.000000e+00
-9.841263e-02 0.000000e+00
-9.828763e-02 0.000000e+00
-9.816263e-02 0.000000e+00
-9.803763e-02 0.000000e+00
-9.791263e-02 0.000000e+00
-9.778763e-02 0.000000e+00
-9.766263e-02 0.000000e+00
-9.753763e-02 0.000000e+00
-9.741263e-02 0.000000e+00
-9.728763e-02 0.000000e+00
-9.716263e-02 0.000000e+00
-9.703763e-02 0.000000e+00
-9.691263e-02 0.000000e+00
-9.678763e-02 0.000000e+00
-9.666263e-02 0.000000e+00
-9.653763e-02 0.000000e+00
-9.641263e-02 0.000000e+00
-9.628763e-02 0.000000e+00
-9.616263e-02 0.000000e+00
-9.603763e-02 0.000000e+00
-9.591263e-02 0.000000e+00
-9.578763e-02 0.000000e+00
-9.566263e-02 0.000000e+00
-9.553763e-02 0.000000e+00
-9.541263e-02 0.000000e+00
-9.528763e-02 0.000000e+00
-9.516263e-02 0.000000e+00
-9.503763e-02 0.000000e+00
-9.491263e-02 0.000000e+00
-9.478763e-02 0.000000e+00
-9.466263e-02 0.000000e+00
-9.453763e-02 0.000000e+00
-9.441262e-02 0.000000e+00
-9.428763e-02 0.000000e+00
-9.416263e-02 0.000000e+00
-9.403763e-02 0.000000e+00
-9.391263e-02 0.000000e+00
-9.378763e-02 0.000000e+00
-9.366263e-02 0.000000e+00
-9.353763e-02 0.000000e+00
-9.341263e-02 0.000000e+00
-9.328763e-02 0.000000e+00
-9.316263e-02 0.000000e+00
-9.303763e-02 0.000000e+00
-9.291263e-02 0.000000e+00
-9.278763e-02 0.000000e+00
-9.266263e-02 0.000000e+00
-9.253763e-02 0.000000e+00
-9.241263e-02 0.000000e+00
-9.228763e-02 0.000000e+00
-9.216263e-02 0.000000e+00
-9.203763e-02 0.000000e+00
-9.191263e-02 0.000000e+00
-9.178763e-02 0.000000e+00
-9.166263e-02 0.000000e+00
-9.153762e-02 0.000000e+00
-9.141263e-02 0.000000e+00
-9.128763e-02 0.000000e+00
-9.116263e-02 0.000000e+00
-9.103763e-02 0.000000e+00
-9.091263e-02 0.000000e+00
-9.078763e-02 0.000000e+00
-9.066263e-02 0.000000e+00
-9.053763e-02 0.000000e+00
-9.041263e-02 0.000000e+00
-9.028763e-02 0.000000e+00
-9.016263e-02 0.000000e+00
-9.003763e-02 0.000000e+00
-8.991263e-02 0.000000e+00
-8.978763e-02 0.000000e+00
-8.966263e-02 0.000000e+00
-8.953763e-02 0.000000e+00
-8.941263e-02 0.000000e+00
-8.928763e-02 0.000000e+00
-8.916263e-02 0.000000e+00
-8.903763e-02 0.000000e+00
-8.891263e-02 0.000000e+00
-8.878763e-02 0.000000e+00
-8.866262e-02 0.000000e+00
-8.853763e-02 0.000000e+00
-8.841263e-02 0.000000e+00
-8.828763e-02 0.000000e+00
-8.816263e-02 0.000000e+00
-8.803762e-02 0.000000e+00
-8.791263e-02 0.000000e+00
-8.778763e-02 0.000000e+00
-8.766263e-02 0.000000e+00
-8.753763e-02 0.000000e+00
-8.741263e-02 0.000000e+00
-8.728763e-02 0.000000e+00
-8.716263e-02 0.000000e+00
-8.703763e-02 0.000000e+00
-8.691263e-02 0.000000e+00
-8.678763e-02 0.000000e+00
-8.666263e-02 0.000000e+00
-8.653763e-02 0.000000e+00
-8.641262e-02 0.000000e+00
-8.628763e-02 0.000000e+00
-8.616263e-02 0.000000e+00
-8.603763e-02 0.000000e+00
-8.591263e-02 0.000000e+00
-8.578762e-02 0.000000e+00
-8.566263e-02 0.000000e+00
-8.553763e-02 0.000000e+00
-8.541263e-02 0.000000e+00
-8.528763e-02 0.000000e+00
-8.516262e-02 0.000000e+00
-8.503763e-02 0.000000e+00
-8.491263e-02 0.000000e+00
-8.478763e-02 0.000000e+00
-8.466263e-02 0.000000e+00
-8.453763e-02 0.000000e+00
-8.441263e-02 0.000000e+00
-8.428763e-02 0.000000e+00
-8.416263e-02 0.000000e+00
-8.403763e-02 0.000000e+00
-8.391263e-02 0.000000e+00
-8.378763e-02 0.000000e+00
-8.366263e-02 0.000000e+00
-8.353762e-02 0.000000e+00
-8.341263e-02 0.000000e+00
-8.328763e-02 0.000000e+00
-8.316263e-02 0.000000e+00
-8.303763e-02 0.000000e+00
-8.291262e-02 0.000000e+00
-8.278763e-02 0.000000e+00
-8.266263e-02 0.000000e+00
-8.253763e-02 0.000000e+00
-8.241263e-02 0.000000e+00
-8.228762e-02 0.000000e+00
-8.216263e-02 0.000000e+00
-8.203763e-02 0.000000e+00
-8.191263e-02 0.000000e+00
-8.178763e-02 0.000000e+00
-8.166263e-02 0.000000e+00
-8.153763e-02 0.000000e+00
-8.141263e-02 0.000000e+00
-8.128763e-02 0.000000e+00
-8.116263e-02 0.000000e+00
-8.103763e-02 0.000000e+00
-8.091263e-02 0.000000e+00
-8.078763e-02 0.000000e+00
-8.066263e-02 0.000000e+00
-8.053763e-02 0.000000e+00
-8.041263e-02 0.000000e+00
-8.028763e-02 0.000000e+00
-8.016263e-02 0.000000e+00
-8.003762e-02 0.000000e+00
-7.991263e-02 0.000000e+00
-7.978763e-02 0.000000e+00
-7.966263e-02 0.000000e+00
-7.953763e-02 0.000000e+00
-7.941262e-02 0.000000e+00
-7.928763e-02 0.000000e+00
-7.916263e-02 0.000000e+00
-7.903763e-02 0.000000e+00
-7.891263e-02 0.000000e+00
-7.878762e-02 0.000000e+00
-7.866263e-02 0.000000e+00
-7.853763e-02 0.000000e+00
-7.841263e-02 0.000000e+00
-7.828763e-02 0.000000e+00
-7.816263e-02 0.000000e+00
-7.803763e-02 0.000000e+00
-7.791263e-02 0.000000e+00
-7.778763e-02 0.000000e+00
-7.766263e-02 0.000000e+00
-7.753763e-02 0.000000e+00
-7.741263e-02 0.000000e+00
-7.728763e-02 0.000000e+00
-7.716262e-02 0.000000e+00
-7.703763e-02 0.000000e+00
-7.691263e-02 0.000000e+00
-7.678763e-02 0.000000e+00
-7.666263e-02 0.000000e+00
-7.653762e-02 0.000000e+00
-7.641263e-02 0.000000e+00
-7.628763e-02 0.000000e+00
-7.616263e-02 0.000000e+00
-7.603763e-02 0.000000e+00
-7.591262e-02 0.000000e+00
-7.578763e-02 0.000000e+00
-7.566263e-02 0.000000e+00
-7.553763e-02 0.000000e+00
-7.541263e-02 0.000000e+00
-7.528763e-02 0.000000e+00
-7.516263e-02 0.000000e+00
-7.503763e-02 0.000000e+00
-7.491263e-02 0.000000e+00
-7.478763e-02 0.000000e+00
-7.466263e-02 0.000000e+00
-7.453763e-02 0.000000e+00
-7.441263e-02 0.000000e+00
-7.428762e-02 0.000000e+00
-7.416262e-02 0.000000e+00
-7.403763e-02 0.000000e+00
-7.391263e-02 0.000000e+00
-7.378763e-02 0.000000e+00
-7.366262e-02 0.000000e+00
-7.353763e-02 0.000000e+00
-7.341263e-02 0.000000e+00
-7.328763e-02 0.000000e+00
-7.316263e-02 0.000000e+00
-7.303762e-02 0.000000e+00
-7.291263e-02 0.000000e+00
-7.278763e-02 0.000000e+00
-7.266263e-02 0.000000e+00
-7.253763e-02 0.000000e+00
-7.241262e-02 0.000000e+00
-7.228763e-02 0.000000e+00
-7.216263e-02 0.000000e+00
-7.203763e-02 0.000000e+00
-7.191263e-02 0.000000e+00
-7.178763e-02 0.000000e+00
-7.166263e-02 0.000000e+00
-7.153763e-02 0.000000e+00
-7.141262e-02 0.000000e+00
-7.128763e-02 0.000000e+00
-7.116263e-02 0.000000e+00
-7.103763e-02 0.000000e+00
-7.091263e-02 0.000000e+00
-7.078762e-02 0.000000e+00
-7.066263e-02 0.000000e+00
-7.053763e-02 0.000000e+00
-7.041263e-02 0.000000e+00
-7.028763e-02 0.000000e+00
-7.016262e-02 0.000000e+00
-7.003763e-02 0.000000e+00
-6.991263e-02 0.000000e+00
-6.978763e-02 0.000000e+00
-6.966263e-02 0.000000e+00
-6.953762e-02 0.000000e+00
-6.941263e-02 0.000000e+00
-6.928763e-02 0.000000e+00
-6.916262e-02 0.000000e+00
-6.903763e-02 0.000000e+00
-6.891263e-02 0.000000e+00
-6.878763e-02 0.000000e+00
-6.866263e-02 0.000000e+00
-6.853762e-02 0.000000e+00
-6.841263e-02 0.000000e+00
-6.828763e-02 0.000000e+00
-6.816263e-02 0.000000e+00
-6.803763e-02 0.000000e+00
-6.791262e-02 0.000000e+00
-6.778763e-02 0.000000e+00
-6.766263e-02 0.000000e+00
-6.753763e-02 0.000000e+00
-6.741263e-02 0.000000e+00
-6.728762e-02 0.000000e+00
-6.716263e-02 0.000000e+00
-6.703763e-02 0.000000e+00
-6.691263e-02 0.000000e+00
-6.678763e-02 0.000000e+00
-6.666262e-02 0.000000e+00
-6.653763e-02 0.000000e+00
-6.641263e-02 0.000000e+00
-6.628762e-02 0.000000e+00
-6.616263e-02 0.000000e+00
-6.603763e-02 0.000000e+00
-6.591263e-02 0.000000e+00
-6.578763e-02 0.000000e+00
-6.566262e-02 0.000000e+00
-6.553763e-02 0.000000e+00
-6.541263e-02 0.000000e+00
-6.528763e-02 0.000000e+00
-6.516263e-02 0.000000e+00
-6.503762e-02 0.000000e+00
-6.491263e-02 0.000000e+00
-6.478763e-02 0.000000e+00
-6.466263e-02 0.000000e+00
-6.453763e-02 0.000000e+00
-6.441262e-02 0.000000e+00
-6.428763e-02 0.000000e+00
-6.416263e-02 0.000000e+00
-6.403763e-02 0.000000e+00
-6.391263e-02 0.000000e+00
-6.378762e-02 0.000000e+00
-6.366263e-02 0.000000e+00
-6.353763e-02 0.000000e+00
-6.341262e-02 0.000000e+00
-6.328763e-02 0.000000e+00
-6.316262e-02 0.000000e+00
-6.303763e-02 0.000000e+00
-6.291263e-02 0.000000e+00
-6.278762e-02 0.000000e+00
-6.266263e-02 0.000000e+00
-6.253763e-02 0.000000e+00
-6.241263e-02 0.000000e+00
-6.228763e-02 0.000000e+00
-6.216263e-02 0.000000e+00
-6.203763e-02 0.000000e+00
-6.191263e-02 0.000000e+00
-6.178763e-02 0.000000e+00
-6.166263e-02 0.000000e+00
-6.153763e-02 0.000000e+00
-6.141263e-02 0.000000e+00
-6.128763e-02 0.000000e+00
-6.116263e-02 0.000000e+00
-6.103763e-02 0.000000e+00
-6.091263e-02 0.000000e+00
-6.078763e-02 0.000000e+00
-6.066263e-02 0.000000e+00
-6.053763e-02 0.000000e+00
-6.041263e-02 0.000000e+00
-6.028763e-02 0.000000e+00
-6.016263e-02 0.000000e+00
-6.003763e-02 0.000000e+00
-5.991263e-02 0.000000e+00
-5.978763e-02 0.000000e+00
-5.966263e-02 0.000000e+00
-5.953763e-02 0.000000e+00
-5.941263e-02 0.000000e+00
-5.928763e-02 0.000000e+00
-5.916263e-02 0.000000e+00
-5.903763e-02 0.000000e+00
-5.891263e-02 0.000000e+00
-5.878763e-02 0.000000e+00
-5.866263e-02 0.000000e+00
-5.853763e-02 0.000000e+00
-5.841263e-02 0.000000e+00
-5.828763e-02 0.000000e+00
-5.816263e-02 0.000000e+00
-5.803763e-02 0.000000e+00
-5.791263e-02 0.000000e+00
-5.778763e-02 0.000000e+00
-5.766262e-02 0.000000e+00
-5.753763e-02 0.000000e+00
-5.741263e-02 0.000000e+00
-5.728763e-02 0.000000e+00
-5.716263e-02 0.000000e+00
-5.703763e-02 0.000000e+00
-5.691263e-02 0.000000e+00
-5.678762e-02 0.000000e+00
-5.666263e-02 0.000000e+00
-5.653763e-02 0.000000e+00
-5.641263e-02 0.000000e+00
-5.628763e-02 0.000000e+00
-5.616263e-02 0.000000e+00
-5.603763e-02 0.000000e+00
-5.591263e-02 0.000000e+00
-5.578763e-02 0.000000e+00
-5.566263e-02 0.000000e+00
-5.553763e-02 0.000000e+00
-5.541263e-02 0.000000e+00
-5.528763e-02 0.000000e+00
-5.516263e-02 0.000000e+00
-5.503763e-02 0.000000e+00
-5.491263e-02 0.000000e+00
-5.478763e-02 0.000000e+00
-5.466263e-02 0.000000e+00
-5.453763e-02 0.000000e+00
-5.441263e-02 0.000000e+00
-5.428763e-02 0.000000e+00
-5.416263e-02 0.000000e+00
-5.403763e-02 0.000000e+00
-5.391262e-02 0.000000e+00
-5.378763e-02 0.000000e+00
-5.366263e-02 0.000000e+00
-5.353763e-02 0.000000e+00
-5.341263e-02 0.000000e+00
-5.328763e-02 0.000000e+00
-5.316263e-02 0.000000e+00
-5.303762e-02 0.000000e+00
-5.291263e-02 0.000000e+00
-5.278763e-02 0.000000e+00
-5.266263e-02 0.000000e+00
-5.253763e-02 0.000000e+00
-5.241263e-02 0.000000e+00
-5.228763e-02 0.000000e+00
-5.216262e-02 0.000000e+00
-5.203763e-02 0.000000e+00
-5.191263e-02 0.000000e+00
-5.178763e-02 0.000000e+00
-5.166263e-02 0.000000e+00
-5.153763e-02 0.000000e+00
-5.141263e-02 0.000000e+00
-5.128762e-02 0.000000e+00
-5.116263e-02 0.000000e+00
-5.103762e-02 0.000000e+00
-5.091263e-02 0.000000e+00
-5.078763e-02 0.000000e+00
-5.066263e-02 0.000000e+00
-5.053763e-02 0.000000e+00
-5.041263e-02 0.000000e+00
-5.028763e-02 0.000000e+00
-5.016262e-02 0.000000e+00
-5.003763e-02 0.000000e+00
-4.991263e-02 0.000000e+00
-4.978763e-02 0.000000e+00
-4.966263e-02 0.000000e+00
-4.953763e-02 0.000000e+00
-4.941263e-02 0.000000e+00
-4.928762e-02 0.000000e+00
-4.916263e-02 0.000000e+00
-4.903763e-02 0.000000e+00
-4.891263e-02 0.000000e+00
-4.878763e-02 0.000000e+00
-4.866263e-02 0.000000e+00
-4.853763e-02 0.000000e+00
-4.841262e-02 0.000000e+00
-4.828763e-02 0.000000e+00
-4.816263e-02 0.000000e+00
-4.803763e-02 0.000000e+00
-4.791263e-02 0.000000e+00
-4.778763e-02 0.000000e+00
-4.766263e-02 0.000000e+00
-4.753762e-02 0.000000e+00
-4.741263e-02 0.000000e+00
-4.728762e-02 0.000000e+00
-4.716263e-02 0.000000e+00
-4.703763e-02 0.000000e+00
-4.691263e-02 0.000000e+00
-4.678763e-02 0.000000e+00
-4.666262e-02 0.000000e+00
-4.653763e-02 0.000000e+00
-4.641262e-02 0.000000e+00
-4.628763e-02 0.000000e+00
-4.616263e-02 0.000000e+00
-4.603763e-02 0.000000e+00
-4.591263e-02 0.000000e+00
-4.578763e-02 0.000000e+00
-4.566263e-02 0.000000e+00
-4.553762e-02 0.000000e+00
-4.541263e-02 0.000000e+00
-4.528763e-02 0.000000e+00
-4.516263e-02 0.000000e+00
-4.503763e-02 0.000000e+00
-4.491263e-02 0.000000e+00
-4.478763e-02 0.000000e+00
-4.466262e-02 0.000000e+00
-4.453763e-02 0.000000e+00
-4.441263e-02 0.000000e+00
-4.428763e-02 0.000000e+00
-4.416263e-02 0.000000e+00
-4.403763e-02 0.000000e+00
-4.391263e-02 0.000000e+00
-4.378762e-02 0.000000e+00
-4.366263e-02 0.000000e+00
-4.353762e-02 0.000000e+00
-4.341263e-02 0.000000e+00
-4.328763e-02 0.000000e+00
-4.316263e-02 0.000000e+00
-4.303763e-02 0.000000e+00
-4.291262e-02 0.000000e+00
-4.278763e-02 0.000000e+00
-4.266262e-02 0.000000e+00
-4.253763e-02 0.000000e+00
-4.241263e-02 0.000000e+00
-4.228763e-02 0.000000e+00
-4.216263e-02 0.000000e+00
-4.203762e-02 0.000000e+00
-4.191263e-02 0.000000e+00
-4.178762e-02 0.000000e+00
-4.166263e-02 0.000000e+00
-4.153763e-02 0.000000e+00
-4.141263e-02 0.000000e+00
-4.128763e-02 0.000000e+00
-4.116262e-02 0.000000e+00
-4.103763e-02 0.000000e+00
-4.091262e-02 0.000000e+00
-4.078763e-02 0.000000e+00
-4.066263e-02 0.000000e+00
-4.053763e-02 0.000000e+00
-4.041263e-02 0.000000e+00
-4.028763e-02 0.000000e+00
-4.016262e-02 0.000000e+00
-4.003762e-02 0.000000e+00
-3.991263e-02 0.000000e+00
-3.978763e-02 0.000000e+00
-3.966263e-02 0.000000e+00
-3.953762e-02 0.000000e+00
-3.941263e-02 0.000000e+00
-3.928763e-02 0.000000e+00
-3.916263e-02 0.000000e+00
-3.903762e-02 0.000000e+00
-3.891262e-02 0.000000e+00
-3.878763e-02 0.000000e+00
-3.866263e-02 0.000000e+00
-3.853763e-02 0.000000e+00
-3.841262e-02 0.000000e+00
-3.828762e-02 0.000000e+00
-3.816263e-02 0.000000e+00
-3.803763e-02 0.000000e+00
-3.791262e-02 0.000000e+00
-3.778762e-02 0.000000e+00
-3.766263e-02 0.000000e+00
-3.753763e-02 0.000000e+00
-3.741263e-02 0.000000e+00
-3.728762e-02 0.000000e+00
-3.716262e-02 0.000000e+00
-3.703763e-02 0.000000e+00
-3.691263e-02 0.000000e+00
-3.678763e-02 0.000000e+00
-3.666262e-02 0.000000e+00
-3.653762e-02 0.000000e+00
-3.641263e-02 0.000000e+00
-3.628763e-02 0.000000e+00
-3.616262e-02 0.000000e+00
-3.603762e-02 0.000000e+00
-3.591263e-02 0.000000e+00
-3.578763e-02 0.000000e+00
-3.566263e-02 0.000000e+00
-3.553762e-02 0.000000e+00
-3.541262e-02 0.000000e+00
-3.528763e-02 0.000000e+00
-3.516263e-02 0.000000e+00
-3.503762e-02 0.000000e+00
-3.491262e-02 0.000000e+00
-3.478763e-02 0.000000e+00
-3.466263e-02 0.000000e+00
-3.453763e-02 0.000000e+00
-3.441262e-02 0.000000e+00
-3.428762e-02 0.000000e+00
-3.416263e-02 0.000000e+00
-3.403763e-02 0.000000e+00
-3.391263e-02 0.000000e+00
-3.378762e-02 0.000000e+00
-3.366262e-02 0.000000e+00
-3.353763e-02 0.000000e+00
-3.341263e-02 0.000000e+00
-3.328762e-02 0.000000e+00
-3.316262e-02 0.000000e+00
-3.303763e-02 0.000000e+00
-3.291263e-02 0.000000e+00
-3.278763e-02 0.000000e+00
-3.266262e-02 0.000000e+00
-3.253762e-02 0.000000e+00
-3.241263e-02 0.000000e+00
-3.228763e-02 0.000000e+00
-3.216263e-02 0.000000e+00
-3.203762e-02 0.000000e+00
-3.191262e-02 0.000000e+00
-3.178763e-02 0.000000e+00
-3.166263e-02 0.000000e+00
-3.153762e-02 0.000000e+00
-3.141262e-02 0.000000e+00
-3.128763e-02 0.000000e+00
-3.116263e-02 0.000000e+00
-3.103763e-02 0.000000e+00
-3.091262e-02 0.000000e+00
-3.078762e-02 0.000000e+00
-3.066263e-02 0.000000e+00
-3.053763e-02 0.000000e+00
-3.041262e-02 0.000000e+00
-3.028762e-02 0.000000e+00
-3.016263e-02 0.000000e+00
-3.003763e-02 0.000000e+00
-2.991263e-02 0.000000e+00
-2.978762e-02 0.000000e+00
-2.966262e-02 0.000000e+00
-2.953763e-02 0.000000e+00
-2.941263e-02 0.000000e+00
-2.928763e-02 0.000000e+00
-2.916262e-02 0.000000e+00
-2.903762e-02 0.000000e+00
-2.891263e-02 0.000000e+00
-2.878763e-02 0.000000e+00
-2.866262e-02 0.000000e+00
-2.853762e-02 0.000000e+00
-2.841263e-02 0.000000e+00
-2.828763e-02 0.000000e+00
-2.816263e-02 0.000000e+00
-2.803762e-02 0.000000e+00
-2.791262e-02 0.000000e+00
-2.778763e-02 0.000000e+00
-2.766263e-02 0.000000e+00
-2.753762e-02 0.000000e+00
-2.741262e-02 0.000000e+00
-2.728762e-02 0.000000e+00
-2.716263e-02 0.000000e+00
-2.703763e-02 0.000000e+00
-2.691262e-02 0.000000e+00
-2.678762e-02 0.000000e+00
-2.666263e-02 0.000000e+00
-2.653763e-02 0.000000e+00
-2.641263e-02 0.000000e+00
-2.628762e-02 0.000000e+00
-2.616262e-02 0.000000e+00
-2.603763e-02 0.000000e+00
-2.591263e-02 0.000000e+00
-2.578762e-02 0.000000e+00
-2.566262e-02 0.000000e+00
-2.553762e-02 0.000000e+00
-2.541263e-02 0.000000e+00
-2.528763e-02 0.000000e+00
-2.516262e-02 0.000000e+00
-2.503762e-02 0.000000e+00
-2.491263e-02 0.000000e+00
-2.478763e-02 0.000000e+00
-2.466263e-02 0.000000e+00
-2.453762e-02 0.000000e+00
-2.441262e-02 0.000000e+00
-2.428763e-02 0.000000e+00
-2.416263e-02 0.000000e+00
-2.403762e-02 0.000000e+00
-2.391262e-02 0.000000e+00
-2.378763e-02 0.000000e+00
-2.366263e-02 0.000000e+00
-2.353763e-02 0.000000e+00
-2.341262e-02 0.000000e+00
-2.328762e-02 0.000000e+00
-2.316263e-02 0.000000e+00
-2.303763e-02 0.000000e+00
-2.291262e-02 0.000000e+00
-2.278762e-02 0.000000e+00
-2.266262e-02 0.000000e+00
-2.253763e-02 0.000000e+00
-2.241263e-02 0.000000e+00
-2.228762e-02 0.000000e+00
-2.216262e-02 0.000000e+00
-2.203763e-02 0.000000e+00
-2.191263e-02 0.000000e+00
-2.178763e-02 0.000000e+00
-2.166262e-02 0.000000e+00
-2.153762e-02 0.000000e+00
-2.141263e-02 0.000000e+00
-2.128763e-02 0.000000e+00
-2.116262e-02 0.000000e+00
-2.103762e-02 0.000000e+00
-2.091262e-02 0.000000e+00
-2.078763e-02 0.000000e+00
-2.066263e-02 0.000000e+00
-2.053762e-02 0.000000e+00
-2.041262e-02 0.000000e+00
-2.028763e-02 0.000000e+00
-2.016263e-02 0.000000e+00
-2.003762e-02 0.000000e+00
-1.991262e-02 0.000000e+00
-1.978762e-02 0.000000e+00
-1.966263e-02 0.000000e+00
-1.953763e-02 0.000000e+00
-1.941262e-02 0.000000e+00
-1.928762e-02 0.000000e+00
-1.916263e-02 0.000000e+00
-1.903763e-02 0.000000e+00
-1.891263e-02 0.000000e+00
-1.878762e-02 0.000000e+00
-1.866262e-02 0.000000e+00
-1.853763e-02 0.000000e+00
-1.841263e-02 0.000000e+00
-1.828762e-02 0.000000e+00
-1.816262e-02 0.000000e+00
-1.803762e-02 0.000000e+00
-1.791263e-02 0.000000e+00
-1.778763e-02 0.000000e+00
-1.766262e-02 0.000000e+00
-1.753762e-02 0.000000e+00
-1.741263e-02 0.000000e+00
-1.728763e-02 0.000000e+00
-1.716262e-02 0.000000e+00
-1.703762e-02 0.000000e+00
-1.691262e-02 0.000000e+00
-1.678763e-02 0.000000e+00
-1.666263e-02 0.000000e+00
-1.653762e-02 0.000000e+00
-1.641262e-02 0.000000e+00
-1.628762e-02 0.000000e+00
-1.616263e-02 0.000000e+00
-1.603763e-02 0.000000e+00
-1.591262e-02 0.000000e+00
-1.578762e-02 0.000000e+00
-1.566263e-02 0.000000e+00
-1.553763e-02 0.000000e+00
-1.541262e-02 0.000000e+00
-1.528762e-02 0.000000e+00
-1.516262e-02 0.000000e+00
-1.503763e-02 0.000000e+00
-1.491263e-02 0.000000e+00
-1.478762e-02 0.000000e+00
-1.466262e-02 0.000000e+00
-1.453763e-02 0.000000e+00
-1.441263e-02 0.000000e+00
-1.428763e-02 0.000000e+00
-1.416262e-02 0.000000e+00
-1.403762e-02 0.000000e+00
-1.391263e-02 0.000000e+00
-1.378763e-02 0.000000e+00
-1.366262e-02 0.000000e+00
-1.353762e-02 0.000000e+00
-1.341262e-02 0.000000e+00
-1.328763e-02 0.000000e+00
-1.316263e-02 0.000000e+00
-1.303762e-02 0.000000e+00
-1.291262e-02 0.000000e+00
-1.278763e-02 0.000000e+00
-1.266263e-02 1.401298e-45
-1.253762e-02 1.401298e-45
-1.241262e-02 2.802597e-45
-1.228762e-02 2.802597e-45
-1.216263e-02 2.802597e-45
-1.203763e-02 1.401298e-45
-1.191262e-02 0.000000e+00
-1.178762e-02 -2.802597e-45
-1.166262e-02 -7.006492e-45
-1.153763e-02 -1.261169e-44
-1.141263e-02 -1.681558e-44
-1.128762e-02 -1.821688e-44
-1.116262e-02 -1.821688e-44
-1.103763e-02 -1.681558e-44
-1.091263e-02 -1.121039e-44
-1.078762e-02 -2.802597e-45
-1.066262e-02 9.809089e-45
-1.053762e-02 2.382207e-44
-1.041263e-02 3.923636e-44
-1.028763e-02 5.605194e-44
-1.016262e-02 6.726233e-44
-1.003762e-02 7.426882e-44
-9.912625e-03 7.286752e-44
-9.787627e-03 6.445973e-44
-9.662621e-03 4.344025e-44
-9.537622e-03 9.809089e-45
-9.412624e-03 -3.222986e-44
-9.287626e-03 -8.407791e-44
-9.162627e-03 -1.359260e-43
-9.037621e-03 -1.905766e-43
-8.912623e-03 -2.382207e-43
-8.787625e-03 -2.718519e-43
-8.662626e-03 -2.872662e-43
-8.537628e-03 -2.760558e-43
-8.412622e-03 -2.312142e-43
-8.287624e-03 -1.513402e-43
-8.162625e-03 -3.363116e-44
-8.037627e-03 1.163078e-43
-7.912621e-03 2.942727e-43
-7.787623e-03 4.904545e-43
-7.662624e-03 6.880375e-43
-7.537626e-03 8.674037e-43
-7.412627e-03 1.008935e-42
-7.287621e-03 1.083204e-42
-7.162623e-03 1.069191e-42
-7.037625e-03 9.472778e-43
-6.912626e-03 6.992479e-43
-6.787628e-03 3.152922e-43
-6.662622e-03 -1.961818e-43
-6.537624e-03 -8.197596e-43
-6.412625e-03 -1.524613e-42
-6.287627e-03 -2.261696e-42
-6.162621e-03 -2.963746e-42
-6.037623e-03 -3.555094e-42
-5.912624e-03 -3.950260e-42
-5.787626e-03 -4.059562e-42
-5.662628e-03 -3.797519e-42
-5.537622e-03 -3.102475e-42
-5.412623e-03 -1.926785e-42
-5.287625e-03 -2.676480e-43
-5.162627e-03 1.835701e-42
-5.037621e-03 4.289375e-42
-4.912622e-03 6.942033e-42
-4.787624e-03 9.586283e-42
-4.662625e-03 1.196569e-41
-4.537627e-03 1.377897e-41
-4.412621e-03 1.471363e-41
-4.287623e-03 1.445720e-41
-4.162624e-03 1.274481e-41
-4.037626e-03 9.377489e-42
-3.912628e-03 4.275362e-42
-3.787622e-03 -2.495713e-42
-3.662623e-03 -1.069191e-41
-3.537625e-03 -1.987462e-41
-3.412627e-03 -2.939784e-41
-3.287621e-03 -3.842501e-41
-3.162622e-03 -4.597380e-41
-3.037624e-03 -5.095121e-41
-2.912626e-03 -5.225722e-41
-2.787627e-03 -4.887869e-41
-2.662621e-03 -4.000847e-41
-2.537623e-03 -2.516872e-41
-2.412625e-03 -4.345427e-42
-2.287626e-03 2.190650e-41
-2.162620e-03 5.237633e-41
-2.037622e-03 8.515971e-41
-1.912624e-03 1.176810e-40
-1.787625e-03 1.467664e-40
-1.662627e-03 1.688242e-40
-1.537621e-03 1.800837e-40
-1.412623e-03 1.769083e-40
-1.287624e-03 1.561859e-40
-1.162626e-03 1.157430e-40
-1.037627e-03 5.477956e-41
-9.126216e-04 -2.573625e-41
-7.876232e-04 -1.227537e-40
-6.626248e-04 -2.309200e-40
-5.376264e-04 -3.425894e-40
-4.126206e-04 -4.479895e-40
-2.876222e-04 -5.356772e-40
-1.626238e-04 -5.932285e-40
-3.762543e-05 -6.082056e-40
8.737296e-05 -5.693364e-40
2.123788e-04 -4.678389e-40
3.373772e-04 -2.988577e-40
4.623756e-04 -6.279359e-41
5.873740e-04 2.334956e-40
7.123798e-04 5.759028e-40
8.373782e-04 9.427291e-40
9.623766e-04 1.305018e-39
1.087375e-03 1.627649e-39
1.212373e-03 1.871262e-39
1.337379e-03 1.995015e-39
1.462378e-03 1.960112e-39
1.587376e-03 1.733930e-39
1.712374e-03 1.294489e-39
1.837373e-03 6.349073e-40
1.962379e-03 -2.325399e-40
2.087377e-03 -1.273309e-39
2.212375e-03 -2.428851e-39
2.337374e-03 -3.616774e-39
2.462380e-03 -4.733272e-39
2.587378e-03 -5.658143e-39
2.712376e-03 -6.262428e-39
2.837375e-03 -6.418587e-39
2.962373e-03 -6.012790e-39
3.087379e-03 -4.958600e-39
3.212377e-03 -3.211115e-39
3.337376e-03 -7.803032e-40
3.462374e-03 2.257901e-39
3.587373e-03 5.754264e-39
3.712378e-03 9.484195e-39
3.837377e-03 1.315231e-38
3.962375e-03 1.640460e-38
4.087374e-03 1.884879e-38
4.212379e-03 2.008260e-38
4.337378e-03 1.972912e-38
4.462376e-03 1.747742e-38
4.587375e-03 1.312578e-38
4.712373e-03 6.623889e-39
4.837379e-03 -1.889858e-39
4.962377e-03 -1.206083e-38
5.087376e-03 -2.330486e-38
5.212374e-03 -3.481344e-38
5.337380e-03 -4.558106e-38
5.462378e-03 -5.445652e-38
5.587377e-03 -6.021891e-38
5.712375e-03 -6.167591e-38
5.837373e-03 -5.778039e-38
5.962379e-03 -4.775810e-38
6.087378e-03 -3.123680e-38
6.212376e-03 -8.365365e-39
6.337374e-03 2.009058e-38
6.462373e-03 5.269014e-38
6.587379e-03 8.730895e-38
6.712377e-03 1.211926e-37
6.837375e-03 1.510797e-37
6.962374e-03 1.733969e-37
7.087380e-03 1.845239e-37
7.212378e-03 1.811172e-37
7.337376e-03 1.604756e-37
7.462375e-03 1.209215e-37
7.587373e-03 6.216580e-38
7.712379e-03 -1.437885e-38
7.837377e-03 -1.053791e-37
7.962376e-03 -2.054933e-37
8.087374e-03 -3.074507e-37
8.212380e-03 -4.023258e-37
8.337379e-03 -4.800192e-37
8.462377e-03 -5.299454e-37
8.587375e-03 -5.419048e-37
8.712374e-03 -5.070961e-37
8.837380e-03 -4.192061e-37
8.962378e-03 -2.754897e-37
9.087376e-03 -7.774172e-38
9.212375e-03 1.669547e-37
9.337373e-03 4.458123e-37
9.462379e-03 7.403643e-37
9.587377e-03 1.027015e-36
9.712376e-03 1.278169e-36
9.837374e-03 1.463952e-36
9.962380e-03 1.554483e-36
1.008738e-02 1.522596e-36
1.021238e-02 1.346858e-36
1.033738e-02 1.014654e-36
1.046237e-02 5.250807e-37
1.058738e-02 -1.086601e-37
1.071238e-02 -8.576874e-37
1.083738e-02 -1.676983e-36
1.096237e-02 -2.506318e-36
1.108738e-02 -3.272749e-36
1.121238e-02 -3.894755e-36
1.133738e-02 -4.287969e-36
1.146238e-02 -4.372279e-36
1.158737e-02 -4.079925e-36
1.171238e-02 -3.364043e-36
1.183738e-02 -2.206960e-36
1.196238e-02 -6.274459e-37
1.208737e-02 1.313954e-36
1.221237e-02 3.512345e-36
1.233738e-02 5.819450e-36
1.246238e-02 8.048687e-36
1.258738e-02 9.984705e-36
1.271237e-02 1.139734e-35
1.283738e-02 1.205960e-35
1.296238e-02 1.176875e-35
1.308738e-02 1.036925e-35
1.321238e-02 7.775796e-36
1.333737e-02 3.994262e-36
1.346238e-02 -8.615022e-37
1.358738e-02 -6.559547e-36
1.371238e-02 -1.274845e-35
1.383737e-02 -1.896647e-35
1.396237e-02 -2.466241e-35
1.408738e-02 -2.922839e-35
1.421238e-02 -3.204404e-35
1.433738e-02 -3.252985e-35
1.446237e-02 -3.020701e-35
1.458738e-02 -2.475917e-35
1.471238e-02 -1.609109e-35
1.483738e-02 -4.378282e-36
1.496238e-02 9.898582e-36
1.508737e-02 2.594034e-35
1.521238e-02 4.264221e-35
1.533738e-02 5.863654e-35
1.546238e-02 7.236707e-35
1.558737e-02 8.219372e-35
1.571238e-02 8.652427e-35
1.583738e-02 8.396565e-35
1.596238e-02 7.348519e-35
1.608738e-02 5.456872e-35
1.621237e-02 2.736116e-35
1.633738e-02 -7.226669e-36
1.646238e-02 -4.746042e-35
1.658738e-02 -9.078801e-35
1.671237e-02 -1.339198e-34
1.683737e-02 -1.729890e-34
1.696238e-02 -2.037936e-34
1.708738e-02 -2.221103e-34
1.721238e-02 -2.240683e-34
1.733737e-02 -2.065576e-34
1.746238e-02 -1.676426e-34
1.758738e-02 -1.069445e-34
1.771238e-02 -2.595321e-35
1.783738e-02 7.177268e-35
1.796237e-02 1.805552e-34
1.808738e-02 2.927260e-34
1.821238e-02 3.989567e-34
1.833738e-02 4.887949e-34
1.846237e-02 5.513957e-34
1.858738e-02 5.764172e-34
1.871238e-02 5.550279e-34
1.883738e-02 4.809583e-34
1.896238e-02 3.515061e-34
1.908737e-02 1.684018e-34
1.921238e-02 -6.157026e-35
1.933738e-02 -3.262920e-34
1.946238e-02 -6.084576e-34
1.958738e-02 -8.862068e-34
1.971237e-02 -1.134273e-33
1.983738e-02 -1.325632e-33
1.996238e-02 -1.433594e-33
2.008738e-02 -1.434229e-33
2.021237e-02 -1.308958e-33
2.033738e-02 -1.047123e-33
2.046238e-02 -6.482948e-34
2.058738e-02 -1.240598e-34
2.071238e-02 5.009403e-34
2.083737e-02 1.188958e-33
2.096238e-02 1.890240e-33
2.108738e-02 2.545378e-33
2.121238e-02 3.088921e-33
2.133738e-02 3.454125e-33
2.146237e-02 3.578638e-33
2.158738e-02 3.410743e-33
2.171238e-02 2.915731e-33
2.183738e-02 2.081826e-33
2.196237e-02 9.250957e-34
2.208738e-02 -5.072832e-34
2.221237e-02 -2.135962e-33
2.233738e-02 -3.851022e-33
2.246238e-02 -5.516546e-33
2.258737e-02 -6.978249e-33
2.271238e-02 -8.074010e-33
2.283737e-02 -8.646848e-33
2.296238e-02 -8.559593e-33
2.308738e-02 -7.710260e-33
2.321237e-02 -6.046851e-33
2.333738e-02 -3.580207e-33
2.346237e-02 -3.934345e-34
2.358738e-02 3.353483e-33
2.371238e-02 7.425089e-33
2.383737e-02 1.151874e-32
2.396238e-02 1.528019e-32
2.408738e-02 1.832622e-32
2.421238e-02 2.027360e-32
2.433738e-02 2.077271e-32
2.446237e-02 1.954372e-32
2.458738e-02 1.641254e-32
2.471238e-02 1.134324e-32
2.483737e-02 4.463661e-33
2.496238e-02 -3.919281e-33
2.508737e-02 -1.331753e-32
2.521238e-02 -2.307540e-32
2.533738e-02 -3.240005e-32
2.546237e-02 -4.040886e-32
2.558738e-02 -4.619227e-32
2.571237e-02 -4.888919e-32
2.583738e-02 -4.777012e-32
2.596238e-02 -4.232205e-32
2.608737e-02 -3.232798e-32
2.621238e-02 -1.793304e-32
2.633737e-02 3.104990e-34
2.646238e-02 2.142684e-32
2.658738e-02 4.403477e-32
2.671237e-02 6.640416e-32
2.683738e-02 8.655200e-32
2.696238e-02 1.023757e-31
2.708738e-02 1.118179e-31
2.721238e-02 1.130534e-31
2.733737e-02 1.046849e-31
2.746238e-02 8.593206e-32
2.758738e-02 5.679650e-32
2.771237e-02 1.818384e-32
2.783738e-02 -2.803405e-32
2.796237e-02 -7.903169e-32
2.808738e-02 -1.311279e-31
2.821238e-02 -1.799735e-31
2.833737e-02 -2.208273e-31
2.846238e-02 -2.489077e-31
2.858737e-02 -2.598038e-31
2.871238e-02 -2.499164e-31
2.883738e-02 -2.168971e-31
2.896237e-02 -1.600449e-31
2.908738e-02 -8.062087e-32
2.921237e-02 1.796043e-32
2.933738e-02 1.300981e-31
2.946238e-02 2.481574e-31
2.958737e-02 3.628232e-31
2.971238e-02 4.636539e-31
2.983738e-02 5.398169e-31
2.996238e-02 5.809717e-31
3.008738e-02 5.782430e-31
3.021237e-02 5.252135e-31
3.033738e-02 4.188547e-31
3.046238e-02 2.603008e-31
3.058738e-02 5.537958e-32
3.071238e-02 -1.851869e-31
3.083737e-02 -4.459766e-31
3.096238e-02 -7.074998e-31
3.108738e-02 -9.472798e-31
3.121237e-02 -1.141356e-30
3.133738e-02 -1.266141e-30
3.146237e-02 -1.300519e-30
3.158738e-02 -1.228049e-30
3.171238e-02 -1.039082e-30
3.183737e-02 -7.326095e-31
3.196238e-02 -3.176320e-31
3.208737e-02 1.861380e-31
3.221238e-02 7.483983e-31
3.233738e-02 1.329317e-30
3.246237e-02 1.881577e-30
3.258738e-02 2.353367e-30
3.271239e-02 2.692209e-30
3.283738e-02 2.849399e-30
3.296238e-02 2.784774e-30
3.308737e-02 2.471440e-30
3.321238e-02 1.900031e-30
3.333738e-02 1.082084e-30
3.346238e-02 5.208195e-32
3.358738e-02 -1.132186e-30
3.371237e-02 -2.391234e-30
3.383738e-02 -3.627601e-30
3.396238e-02 -4.731665e-30
3.408737e-02 -5.589358e-30
3.421238e-02 -6.091370e-30
3.433737e-02 -6.143278e-30
3.446238e-02 -5.675836e-30
3.458738e-02 -4.654577e-30
3.471237e-02 -3.087777e-30
3.483738e-02 -1.031863e-30
3.496237e-02 1.406556e-30
3.508738e-02 4.072722e-30
3.521238e-02 6.770199e-30
3.533737e-02 9.271877e-30
3.546238e-02 1.133518e-29
3.558737e-02 1.272080e-29
3.571238e-02 1.321374e-29
3.583738e-02 1.264533e-29
3.596237e-02 1.091430e-29
3.608738e-02 8.004971e-30
3.621238e-02 4.000747e-30
3.633738e-02 -9.091670e-31