-1.200000e+01 0.000000e+00
-1.199000e+01 0.000000e+00
-1.198000e+01 0.000000e+00
-1.197000e+01 0.000000e+00
-1.196000e+01 1.365513e-26
-1.195000e+01 -5.072029e-23
-1.194000e+01 -5.533768e-22
-1.193000e+01 -3.283873e-21
-1.192000e+01 -1.404338e-20
-1.191000e+01 -4.840608e-20
-1.190000e+01 -1.427204e-19
-1.189000e+01 -3.732667e-19
-1.188000e+01 -8.872044e-19
-1.187000e+01 -1.949548e-18
-1.186000e+01 -4.010788e-18
-1.185000e+01 -7.799749e-18
-1.184000e+01 -1.444579e-17
-1.183000e+01 -2.563325e-17
-1.182000e+01 -4.378914e-17
-1.181000e+01 -7.230228e-17
-1.180000e+01 -1.157684e-16
-1.179000e+01 -1.802511e-16
-1.178000e+01 -2.735429e-16
-1.177000e+01 -4.054047e-16
-1.176000e+01 -5.877547e-16
-1.175000e+01 -8.347710e-16
-1.174000e+01 -1.162865e-15
-1.173000e+01 -1.590473e-15
-1.172000e+01 -2.137617e-15
-1.171000e+01 -2.825167e-15
-1.170000e+01 -3.673742e-15
-1.169000e+01 -4.702192e-15
-1.168000e+01 -5.925601e-15
-1.167000e+01 -7.352741e-15
-1.166000e+01 -8.982963e-15
-1.165000e+01 -1.080246e-14
-1.164000e+01 -1.277994e-14
-1.163000e+01 -1.486165e-14
-1.162000e+01 -1.696589e-14
-1.161000e+01 -1.897704e-14
-1.160000e+01 -2.073917e-14
-1.159000e+01 -2.204954e-14
-1.158000e+01 -2.265199e-14
-1.157000e+01 -2.223067e-14
-1.156000e+01 -2.040423e-14
-1.155000e+01 -1.672095e-14
-1.154000e+01 -1.065505e-14
-1.153000e+01 -1.604701e-15
-1.152000e+01 1.110782e-14
-1.151000e+01 2.823352e-14
-1.150000e+01 5.059093e-14
-1.149000e+01 7.905698e-14
-1.148000e+01 1.145538e-13
-1.147000e+01 1.580314e-13
-1.146000e+01 2.104455e-13
-1.145000e+01 2.727304e-13
-1.144000e+01 3.457673e-13
-1.143000e+01 4.303464e-13
-1.142000e+01 5.271253e-13
-1.141000e+01 6.365816e-13
-1.140000e+01 7.589615e-13
-1.139000e+01 8.942246e-13
-1.138000e+01 1.041986e-12
-1.137000e+01 1.201457e-12
-1.136000e+01 1.371382e-12
-1.135000e+01 1.549982e-12
-1.134000e+01 1.734895e-12
-1.133000e+01 1.923121e-12
-1.132000e+01 2.110981e-12
-1.131000e+01 2.294069e-12
-1.130000e+01 2.467234e-12
-1.129000e+01 2.624555e-12
-1.128000e+01 2.759346e-12
-1.127000e+01 2.864171e-12
-1.126000e+01 2.930879e-12
-1.125000e+01 2.950663e-12
-1.124000e+01 2.914137e-12
-1.123000e+01 2.811443e-12
-1.122000e+01 2.632377e-12
-1.121000e+01 2.366547e-12
-1.120000e+01 2.003551e-12
-1.119000e+01 1.533185e-12
-1.118000e+01 9.456683e-13
-1.117000e+01 2.319004e-13
-1.116000e+01 -6.162731e-13
-1.115000e+01 -1.605772e-12
-1.114000e+01 -2.741982e-12
-1.113000e+01 -4.028451e-12
-1.112000e+01 -5.466582e-12
-1.111000e+01 -7.055329e-12
-1.110000e+01 -8.790904e-12
-1.109000e+01 -1.066651e-11
-1.108000e+01 -1.267208e-11
-1.107000e+01 -1.479410e-11
-1.106000e+01 -1.701537e-11
-1.105000e+01 -1.931497e-11
-1.104000e+01 -2.166813e-11
-1.103000e+01 -2.404624e-11
-1.102000e+01 -2.641697e-11
-1.101000e+01 -2.874436e-11
-1.100000e+01 -3.098910e-11
-1.099000e+01 -3.310881e-11
-1.098000e+01 -3.505849e-11
-1.097000e+01 -3.679100e-11
-1.096000e+01 -3.825764e-11
-1.095000e+01 -3.940883e-11
-1.094000e+01 -4.019487e-11
-1.093000e+01 -4.056677e-11
-1.092000e+01 -4.047714e-11
-1.091000e+01 -3.988116e-11
-1.090000e+01 -3.873755e-11
-1.089000e+01 -3.700961e-11
-1.088000e+01 -3.466626e-11
-1.087000e+01 -3.168305e-11
-1.086000e+01 -2.804315e-11
-1.085000e+01 -2.373835e-11
-1.084000e+01 -1.876990e-11
-1.083000e+01 -1.314933e-11
-1.082000e+01 -6.899109e-12
-1.081000e+01 -5.319571e-14
-1.080000e+01 7.342558e-12
-1.079000e+01 1.523020e-11
-1.078000e+01 2.353968e-11
-1.077000e+01 3.218898e-11
-1.076000e+01 4.108458e-11
-1.075000e+01 5.012207e-11
-1.074000e+01 5.918702e-11
-1.073000e+01 6.815611e-11
-1.072000e+01 7.689845e-11
-1.071000e+01 8.527720e-11
-1.070000e+01 9.315131e-11
-1.069000e+01 1.003776e-10
-1.068000e+01 1.068128e-10
-1.067000e+01 1.123159e-10
-1.066000e+01 1.167509e-10
-1.065000e+01 1.199889e-10
-1.064000e+01 1.219108e-10
-1.063000e+01 1.224101e-10
-1.062000e+01 1.213952e-10
-1.061000e+01 1.187920e-10
-1.060000e+01 1.145461e-10
-1.059000e+01 1.086249e-10
-1.058000e+01 1.010196e-10
-1.057000e+01 9.174677e-11
-1.056000e+01 8.084935e-11
-1.055000e+01 6.839786e-11
-1.054000e+01 5.449063e-11
-1.053000e+01 3.925390e-11
-1.052000e+01 2.284127e-11
-1.051000e+01 5.432759e-12
-1.050000e+01 -1.276670e-11
-1.049000e+01 -3.152927e-11
-1.048000e+01 -5.060673e-11
-1.047000e+01 -6.973349e-11
-1.046000e+01 -8.863007e-11
-1.045000e+01 -1.070070e-10
-1.044000e+01 -1.245693e-10
-1.043000e+01 -1.410206e-10
-1.042000e+01 -1.560689e-10
-1.041000e+01 -1.694307e-10
-1.040000e+01 -1.808371e-10
-1.039000e+01 -1.900384e-10
-1.038000e+01 -1.968096e-10
-1.037000e+01 -2.009553e-10
-1.036000e+01 -2.023147e-10
-1.035000e+01 -2.007655e-10
-1.034000e+01 -1.962283e-10
-1.033000e+01 -1.886699e-10
-1.032000e+01 -1.781059e-10
-1.031000e+01 -1.646028e-10
-1.030000e+01 -1.482793e-10
-1.029000e+01 -1.293065e-10
-1.028000e+01 -1.079075e-10
-1.027000e+01 -8.435583e-11
-1.026000e+01 -5.897305e-11
-1.025000e+01 -3.212523e-11
-1.024000e+01 -4.218645e-12
-1.023000e+01 2.430560e-11
-1.022000e+01 5.297773e-11
-1.021000e+01 8.130632e-11
-1.020000e+01 1.087860e-10
-1.019000e+01 1.349057e-10
-1.018000e+01 1.591576e-10
-1.017000e+01 1.810462e-10
-1.016000e+01 2.000976e-10
-1.015000e+01 2.158693e-10
-1.014000e+01 2.279588e-10
-1.013000e+01 2.360133e-10
-1.012000e+01 2.397376e-10
-1.011000e+01 2.389023e-10
-1.010000e+01 2.333505e-10
-1.009000e+01 2.230042e-10
-1.008000e+01 2.078687e-10
-1.007000e+01 1.880365e-10
-1.006000e+01 1.636890e-10
-1.005000e+01 1.350976e-10
-1.004000e+01 1.026221e-10
-1.003000e+01 6.670860e-11
-1.002000e+01 2.788451e-11
-1.001000e+01 -1.324706e-11
-1.000000e+01 -5.601523e-11
-9.990000e+00 -9.969063e-11
-9.980000e+00 -1.434963e-10
-9.970000e+00 -1.866195e-10
-9.960000e+00 -2.282257e-10
-9.950000e+00 -2.674723e-10
-9.940001e+00 -3.035243e-10
-9.930000e+00 -3.355695e-10
-9.920000e+00 -3.628348e-10
-9.910000e+00 -3.846023e-10
-9.900000e+00 -4.002246e-10
-9.890000e+00 -4.091400e-10
-9.880000e+00 -4.108868e-10
-9.870000e+00 -4.051163e-10
-9.860001e+00 -3.916041e-10
-9.850000e+00 -3.702602e-10
-9.840000e+00 -3.411361e-10
-9.830000e+00 -3.044310e-10
-9.820000e+00 -2.604941e-10
-9.809999e+00 -2.098255e-10
-9.800000e+00 -1.530737e-10
-9.790000e+00 -9.103036e-11
-9.780000e+00 -2.462241e-11
-9.770000e+00 4.509883e-11
-9.760000e+00 1.169712e-10
-9.750000e+00 1.897378e-10
-9.740000e+00 2.620657e-10
-9.730000e+00 3.325668e-10
-9.720000e+00 3.998204e-10
-9.710000e+00 4.623978e-10
-9.700000e+00 5.188875e-10
-9.690001e+00 5.679220e-10
-9.680000e+00 6.082040e-10
-9.670000e+00 6.385339e-10
-9.660000e+00 6.578347e-10
-9.650000e+00 6.651780e-10
-9.640000e+00 6.598070e-10
-9.630000e+00 6.411578e-10
-9.620000e+00 6.088785e-10
-9.610001e+00 5.628451e-10
-9.600000e+00 5.031736e-10
-9.590000e+00 4.302294e-10
-9.580000e+00 3.446316e-10
-9.570000e+00 2.472538e-10
-9.559999e+00 1.392199e-10
-9.550000e+00 2.189576e-11
-9.540000e+00 -1.031244e-10
-9.530000e+00 -2.340352e-10
-9.520000e+00 -3.688425e-10
-9.510000e+00 -5.053900e-10
-9.500000e+00 -6.413890e-10
-9.490000e+00 -7.744526e-10
-9.480000e+00 -9.021324e-10
-9.470000e+00 -1.021958e-09
-9.460000e+00 -1.131479e-09
-9.450000e+00 -1.228305e-09
-9.440001e+00 -1.310153e-09
-9.430000e+00 -1.374887e-09
-9.420000e+00 -1.420564e-09
-9.410000e+00 -1.445469e-09
-9.400000e+00 -1.448158e-09
-9.390000e+00 -1.427492e-09
-9.380000e+00 -1.382668e-09
-9.370000e+00 -1.313242e-09
-9.360001e+00 -1.219157e-09
-9.350000e+00 -1.100754e-09
-9.340000e+00 -9.587821e-10
-9.330000e+00 -7.944018e-10
-9.320000e+00 -6.091818e-10
-9.309999e+00 -4.050861e-10
-9.300000e+00 -1.844575e-10
-9.290000e+00 5.000830e-11
-9.280000e+00 2.952944e-10
-9.270000e+00 5.481011e-10
-9.260000e+00 8.048899e-10
-9.250000e+00 1.061934e-09
-9.240000e+00 1.315372e-09
-9.230000e+00 1.561268e-09
-9.220000e+00 1.795670e-09
-9.210000e+00 2.014678e-09
-9.200000e+00 2.214505e-09
-9.190001e+00 2.391546e-09
-9.180000e+00 2.542436e-09
-9.170000e+00 2.664119e-09
-9.160000e+00 2.753898e-09
-9.150000e+00 2.809497e-09
-9.140000e+00 2.829105e-09
-9.130000e+00 2.811417e-09
-9.120000e+00 2.755673e-09
-9.110001e+00 2.661681e-09
-9.100000e+00 2.529835e-09
-9.090000e+00 2.361126e-09
-9.080000e+00 2.157139e-09
-9.070000e+00 1.920039e-09
-9.060000e+00 1.652555e-09
-9.050000e+00 1.357945e-09
-9.040000e+00 1.039957e-09
-9.030000e+00 7.027757e-10
-9.020000e+00 3.509679e-10
-9.010000e+00 -1.058680e-11
-9.000000e+00 -3.767686e-10
-8.990000e+00 -7.422965e-10
-8.980000e+00 -1.101812e-09
-8.970000e+00 -1.449966e-09
-8.960000e+00 -1.781508e-09
-8.950000e+00 -2.091374e-09
-8.940001e+00 -2.374774e-09
-8.930000e+00 -2.627277e-09
-8.920000e+00 -2.844895e-09
-8.910000e+00 -3.024150e-09
-8.900000e+00 -3.162152e-09
-8.890000e+00 -3.256647e-09
-8.880000e+00 -3.306075e-09
-8.870000e+00 -3.309603e-09
-8.860001e+00 -3.267156e-09
-8.850000e+00 -3.179426e-09
-8.840000e+00 -3.047876e-09
-8.830000e+00 -2.874729e-09
-8.820000e+00 -2.662942e-09
-8.810000e+00 -2.416163e-09
-8.800000e+00 -2.138684e-09
-8.790000e+00 -1.835379e-09
-8.780000e+00 -1.511621e-09
-8.770000e+00 -1.173204e-09
-8.760000e+00 -8.262455e-10
-8.750000e+00 -4.770843e-10
-8.740000e+00 -1.321732e-10
-8.730000e+00 2.020332e-10
-8.720000e+00 5.191928e-10
-8.710000e+00 8.131909e-10
-8.700000e+00 1.078253e-09
-8.690001e+00 1.309053e-09
-8.680000e+00 1.500820e-09
-8.670000e+00 1.649430e-09
-8.660000e+00 1.751495e-09
-8.650000e+00 1.804436e-09
-8.640000e+00 1.806549e-09
-8.630000e+00 1.757049e-09
-8.620000e+00 1.656106e-09
-8.610001e+00 1.504859e-09
-8.600000e+00 1.305420e-09
-8.590000e+00 1.060850e-09
-8.580000e+00 7.751332e-10
-8.570000e+00 4.531183e-10
-8.560000e+00 1.004540e-10
-8.550000e+00 -2.764952e-10
-8.540000e+00 -6.707466e-10
-8.530000e+00 -1.074811e-09
-8.520000e+00 -1.480813e-09
-8.510000e+00 -1.880625e-09
-8.500000e+00 -2.266005e-09
-8.490000e+00 -2.628741e-09
-8.480000e+00 -2.960796e-09
-8.470000e+00 -3.254455e-09
-8.460000e+00 -3.502472e-09
-8.450000e+00 -3.698205e-09
-8.440001e+00 -3.835750e-09
-8.430000e+00 -3.910060e-09
-8.420000e+00 -3.917059e-09
-8.410000e+00 -3.853728e-09
-8.400000e+00 -3.718194e-09
-8.390000e+00 -3.509780e-09
-8.380000e+00 -3.229051e-09
-8.370000e+00 -2.877833e-09
-8.360001e+00 -2.459211e-09
-8.350000e+00 -1.977505e-09
-8.340000e+00 -1.438228e-09
-8.330000e+00 -8.480148e-10
-8.320000e+00 -2.145406e-10
-8.310000e+00 4.535892e-10
-8.300000e+00 1.146962e-09
-8.290000e+00 1.855498e-09
-8.280000e+00 2.568608e-09
-8.270000e+00 3.275354e-09
-8.260000e+00 3.964629e-09
-8.250000e+00 4.625339e-09
-8.240000e+00 5.246584e-09
-8.230000e+00 5.817844e-09
-8.220000e+00 6.329162e-09
-8.210000e+00 6.771316e-09
-8.200000e+00 7.135988e-09
-8.190001e+00 7.415918e-09
-8.180000e+00 7.605035e-09
-8.170000e+00 7.698585e-09
-8.160000e+00 7.693227e-09
-8.150000e+00 7.587113e-09
-8.140000e+00 7.379940e-09
-8.130000e+00 7.072982e-09
-8.120000e+00 6.669088e-09
-8.110001e+00 6.172665e-09
-8.100000e+00 5.589623e-09
-8.090000e+00 4.927302e-09
-8.080000e+00 4.194371e-09
-8.070000e+00 3.400705e-09
-8.060000e+00 2.557239e-09
-8.050000e+00 1.675801e-09
-8.040000e+00 7.689312e-10
-8.030000e+00 -1.503126e-10
-8.020000e+00 -1.068564e-09
-8.010000e+00 -1.972363e-09
-8.000000e+00 -2.848372e-09
-7.990000e+00 -3.683596e-09
-7.980000e+00 -4.465595e-09
-7.970000e+00 -5.182698e-09
-7.960000e+00 -5.824193e-09
-7.950000e+00 -6.380512e-09
-7.940000e+00 -6.843397e-09
-7.930000e+00 -7.206045e-09
-7.920000e+00 -7.463225e-09
-7.910000e+00 -7.611380e-09
-7.900000e+00 -7.648689e-09
-7.890000e+00 -7.575109e-09
-7.880000e+00 -7.392386e-09
-7.870000e+00 -7.104036e-09
-7.860000e+00 -6.715287e-09
-7.850000e+00 -6.233007e-09
-7.840000e+00 -5.665592e-09
-7.830000e+00 -5.022833e-09
-7.820000e+00 -4.315755e-09
-7.810000e+00 -3.556437e-09
-7.800000e+00 -2.757814e-09
-7.790000e+00 -1.933455e-09
-7.780000e+00 -1.097344e-09
-7.770000e+00 -2.636387e-10
-7.760000e+00 5.535681e-10
-7.750000e+00 1.340487e-09
-7.740000e+00 2.083869e-09
-7.730000e+00 2.771231e-09
-7.720000e+00 3.391069e-09
-7.710000e+00 3.933059e-09
-7.700000e+00 4.388237e-09
-7.690000e+00 4.749151e-09
-7.680000e+00 5.009991e-09
-7.670000e+00 5.166693e-09
-7.660000e+00 5.217009e-09
-7.650000e+00 5.160548e-09
-7.640000e+00 4.998783e-09
-7.630000e+00 4.735024e-09
-7.620000e+00 4.374364e-09
-7.610000e+00 3.923589e-09
-7.600000e+00 3.391058e-09
-7.590000e+00 2.786554e-09
-7.580000e+00 2.121119e-09
-7.570000e+00 1.406851e-09
-7.560000e+00 6.566915e-10
-7.550000e+00 -1.158006e-10
-7.540000e+00 -8.966945e-10
-7.530000e+00 -1.671934e-09
-7.520000e+00 -2.427590e-09
-7.510000e+00 -3.150109e-09
-7.500000e+00 -3.826555e-09
-7.490000e+00 -4.444845e-09
-7.480000e+00 -4.993969e-09
-7.470000e+00 -5.464182e-09
-7.460000e+00 -5.847186e-09
-7.450000e+00 -6.136285e-09
-7.440000e+00 -6.326498e-09
-7.430000e+00 -6.414660e-09
-7.420000e+00 -6.399478e-09
-7.410000e+00 -6.281556e-09
-7.400000e+00 -6.063387e-09
-7.390000e+00 -5.749314e-09
-7.380000e+00 -5.345448e-09
-7.370000e+00 -4.859564e-09
-7.360000e+00 -4.300960e-09
-7.350000e+00 -3.680289e-09
-7.340000e+00 -3.009369e-09
-7.330000e+00 -2.300965e-09
-7.320000e+00 -1.568565e-09
-7.310000e+00 -8.261253e-10
-7.300000e+00 -8.782049e-11
-7.290000e+00 6.322168e-10
-7.280000e+00 1.320156e-09
-7.270000e+00 1.962726e-09
-7.260000e+00 2.547455e-09
-7.250000e+00 3.062910e-09
-7.240000e+00 3.498904e-09
-7.230000e+00 3.846694e-09
-7.220000e+00 4.099140e-09
-7.210000e+00 4.250850e-09
-7.200000e+00 4.298281e-09
-7.190000e+00 4.239814e-09
-7.180000e+00 4.075793e-09
-7.170000e+00 3.808525e-09
-7.160000e+00 3.442249e-09
-7.150000e+00 2.983070e-09
-7.140000e+00 2.438850e-09
-7.130000e+00 1.819082e-09
-7.120000e+00 1.134720e-09
-7.110000e+00 3.979889e-10
-7.100000e+00 -3.778276e-10
-7.090000e+00 -1.178624e-09
-7.080000e+00 -1.989722e-09
-7.070000e+00 -2.796131e-09
-7.060000e+00 -3.582813e-09
-7.050000e+00 -4.334955e-09
-7.040000e+00 -5.038227e-09
-7.030000e+00 -5.679046e-09
-7.020000e+00 -6.244811e-09
-7.010000e+00 -6.724134e-09
-7.000000e+00 -7.107039e-09
-6.990000e+00 -7.385145e-09
-6.980000e+00 -7.551813e-09
-6.970000e+00 -7.602260e-09
-6.960000e+00 -7.533654e-09
-6.950000e+00 -7.345151e-09
-6.940000e+00 -7.037919e-09
-6.930000e+00 -6.615107e-09
-6.920000e+00 -6.081791e-09
-6.910000e+00 -5.444879e-09
-6.900000e+00 -4.712986e-09
-6.890000e+00 -3.896272e-09
-6.880000e+00 -3.006268e-09
-6.870000e+00 -2.055655e-09
-6.860000e+00 -1.058046e-09
-6.850000e+00 -2.773318e-11
-6.840000e+00 1.020563e-09
-6.830000e+00 2.071957e-09
-6.820000e+00 3.111666e-09
-6.810000e+00 4.125265e-09
-6.800000e+00 5.098943e-09
-6.790000e+00 6.019745e-09
-6.780000e+00 6.875784e-09
-6.770000e+00 7.656457e-09
-6.760000e+00 8.352604e-09
-6.750000e+00 8.956668e-09
-6.740000e+00 9.462804e-09
-6.730000e+00 9.866961e-09
-6.720000e+00 1.016693e-08
-6.710000e+00 1.036236e-08
-6.700000e+00 1.045472e-08
-6.690000e+00 1.044727e-08
-6.680000e+00 1.034492e-08
-6.670000e+00 1.015418e-08
-6.660000e+00 9.882906e-09
-6.650000e+00 9.540213e-09
-6.640000e+00 9.136217e-09
-6.630000e+00 8.681836e-09
-6.620000e+00 8.188545e-09
-6.610000e+00 7.668138e-09
-6.600000e+00 7.132475e-09
-6.590000e+00 6.593234e-09
-6.580000e+00 6.061669e-09
-6.570000e+00 5.548374e-09
-6.560000e+00 5.063068e-09
-6.550000e+00 4.614397e-09
-6.540000e+00 4.209757e-09
-6.530000e+00 3.855150e-09
-6.520000e+00 3.555062e-09
-6.510000e+00 3.312379e-09
-6.500000e+00 3.128338e-09
-6.490000e+00 3.002513e-09
-6.480000e+00 2.932829e-09
-6.470000e+00 2.915626e-09
-6.460000e+00 2.945744e-09
-6.450000e+00 3.016651e-09
-6.440000e+00 3.120591e-09
-6.430000e+00 3.248773e-09
-6.420000e+00 3.391570e-09
-6.410000e+00 3.538746e-09
-6.400000e+00 3.679699e-09
-6.390000e+00 3.803707e-09
-6.380000e+00 3.900189e-09
-6.370000e+00 3.958957e-09
-6.360000e+00 3.970471e-09
-6.350000e+00 3.926075e-09
-6.340000e+00 3.818229e-09
-6.330000e+00 3.640704e-09
-6.320000e+00 3.388773e-09
-6.310000e+00 3.059354e-09
-6.300000e+00 2.651134e-09
-6.290000e+00 2.164652e-09
-6.280000e+00 1.602347e-09
-6.270000e+00 9.685636e-10
-6.260000e+00 2.695240e-10
-6.250000e+00 -4.867431e-10
-6.240000e+00 -1.290512e-09
-6.230000e+00 -2.130504e-09
-6.220000e+00 -2.994069e-09
-6.210000e+00 -3.867399e-09
-6.200000e+00 -4.735762e-09
-6.190000e+00 -5.583772e-09
-6.180000e+00 -6.395662e-09
-6.170000e+00 -7.155589e-09
-6.160000e+00 -7.847929e-09
-6.150000e+00 -8.457588e-09
-6.140000e+00 -8.970295e-09
-6.130000e+00 -9.372899e-09
-6.120000e+00 -9.653649e-09
-6.110000e+00 -9.802438e-09
-6.100000e+00 -9.811038e-09
-6.090000e+00 -9.673298e-09
-6.080000e+00 -9.385297e-09
-6.070000e+00 -8.945481e-09
-6.060000e+00 -8.354731e-09
-6.050000e+00 -7.616404e-09
-6.040000e+00 -6.736324e-09
-6.030000e+00 -5.722730e-09
-6.020000e+00 -4.586166e-09
-6.010000e+00 -3.339345e-09
-6.000000e+00 -1.996959e-09
-5.990000e+00 -5.754460e-10
-5.980000e+00 9.072645e-10
-5.970000e+00 2.432052e-09
-5.960000e+00 3.978923e-09
-5.950000e+00 5.527356e-09
-5.940000e+00 7.056652e-09
-5.930000e+00 8.546304e-09
-5.920000e+00 9.976364e-09
-5.910000e+00 1.132780e-08
-5.900000e+00 1.258284e-08
-5.890000e+00 1.372533e-08
-5.880000e+00 1.474100e-08
-5.870000e+00 1.561777e-08
-5.860000e+00 1.634598e-08
-5.850000e+00 1.691859e-08
-5.840000e+00 1.733133e-08
-5.830000e+00 1.758280e-08
-5.820000e+00 1.767456e-08
-5.810000e+00 1.761106e-08
-5.800000e+00 1.739966e-08
-5.790000e+00 1.705051e-08
-5.780000e+00 1.657635e-08
-5.770000e+00 1.599238e-08
-5.760000e+00 1.531593e-08
-5.750000e+00 1.456625e-08
-5.740000e+00 1.376409e-08
-5.730000e+00 1.293144e-08
-5.720000e+00 1.209105e-08
-5.710000e+00 1.126609e-08
-5.700000e+00 1.047972e-08
-5.690000e+00 9.754652e-09
-5.680000e+00 9.112754e-09
-5.670000e+00 8.574637e-09
-5.660000e+00 8.159275e-09
-5.650000e+00 7.883642e-09
-5.640000e+00 7.762386e-09
-5.630000e+00 7.807540e-09
-5.620000e+00 8.028277e-09
-5.610000e+00 8.430716e-09
-5.600000e+00 9.017779e-09
-5.590000e+00 9.789108e-09
-5.580000e+00 1.074103e-08
-5.570000e+00 1.186660e-08
-5.560000e+00 1.315568e-08
-5.550000e+00 1.459508e-08
-5.540000e+00 1.616878e-08
-5.530000e+00 1.785819e-08
-5.520000e+00 1.964242e-08
-5.510000e+00 2.149867e-08
-5.500000e+00 2.340258e-08
-5.490000e+00 2.532868e-08
-5.480000e+00 2.725080e-08
-5.470000e+00 2.914252e-08
-5.460000e+00 3.097770e-08
-5.450000e+00 3.273085e-08
-5.440000e+00 3.437765e-08
-5.430000e+00 3.589537e-08
-5.420000e+00 3.726330e-08
-5.410000e+00 3.846310e-08
-5.400000e+00 3.947916e-08
-5.390000e+00 4.029893e-08
-5.380000e+00 4.091310e-08
-5.370000e+00 4.131589e-08
-5.360000e+00 4.150508e-08
-5.350000e+00 4.148215e-08
-5.340000e+00 4.125226e-08
-5.330000e+00 4.082423e-08
-5.320000e+00 4.021037e-08
-5.310000e+00 3.942634e-08
-5.300000e+00 3.849090e-08
-5.290000e+00 3.742560e-08
-5.280000e+00 3.625447e-08
-5.270000e+00 3.500360e-08
-5.260000e+00 3.370075e-08
-5.250000e+00 3.237486e-08
-5.240000e+00 3.105560e-08
-5.230000e+00 2.977284e-08
-5.220000e+00 2.855623e-08
-5.210000e+00 2.743460e-08
-5.200000e+00 2.643558e-08
-5.190000e+00 2.558507e-08
-5.180000e+00 2.490682e-08
-5.170000e+00 2.442205e-08
-5.160000e+00 2.414907e-08
-5.150000e+00 2.410299e-08
-5.140000e+00 2.429547e-08
-5.130000e+00 2.473449e-08
-5.120000e+00 2.542428e-08
-5.110000e+00 2.636519e-08
-5.100000e+00 2.755371e-08
-5.090000e+00 2.898257e-08
-5.080000e+00 3.064081e-08
-5.070000e+00 3.251400e-08
-5.060000e+00 3.458451e-08
-5.050000e+00 3.683177e-08
-5.040000e+00 3.923266e-08
-5.030000e+00 4.176191e-08
-5.020000e+00 4.439250e-08
-5.010000e+00 4.709614e-08
-5.000000e+00 4.984378e-08
-4.990000e+00 5.260608e-08
-4.980000e+00 5.535388e-08
-4.970000e+00 5.805878e-08
-4.960000e+00 6.069354e-08
-4.950000e+00 6.323256e-08
-4.940000e+00 6.565233e-08
-4.930000e+00 6.793182e-08
-4.920000e+00 7.005280e-08
-4.910000e+00 7.200016e-08
-4.900000e+00 7.376215e-08
-4.890000e+00 7.533057e-08
-4.880000e+00 7.670088e-08
-4.870000e+00 7.787227e-08
-4.860000e+00 7.884766e-08
-4.850000e+00 7.963360e-08
-4.840000e+00 8.024018e-08
-4.830000e+00 8.068083e-08
-4.820000e+00 8.097204e-08
-4.810000e+00 8.113305e-08
-4.800000e+00 8.118560e-08
-4.790000e+00 8.115342e-08
-4.780000e+00 8.106188e-08
-4.770000e+00 8.093755e-08
-4.760000e+00 8.080771e-08
-4.750000e+00 8.069987e-08
-4.740000e+00 8.064134e-08
-4.730000e+00 8.065871e-08
-4.720000e+00 8.077745e-08
-4.710000e+00 8.102145e-08
-4.700000e+00 8.141266e-08
-4.690000e+00 8.197065e-08
-4.680000e+00 8.271241e-08
-4.670000e+00 8.365199e-08
-4.660000e+00 8.480033e-08
-4.650000e+00 8.616509e-08
-4.640000e+00 8.775057e-08
-4.630000e+00 8.955763e-08
-4.620000e+00 9.158377e-08
-4.610000e+00 9.382315e-08
-4.600000e+00 9.626681e-08
-4.590000e+00 9.890275e-08
-4.580000e+00 1.017163e-07
-4.570000e+00 1.046903e-07
-4.560000e+00 1.078056e-07
-4.550000e+00 1.110411e-07
-4.540000e+00 1.143746e-07
-4.530000e+00 1.177828e-07
-4.520000e+00 1.212421e-07
-4.510000e+00 1.247285e-07
-4.500000e+00 1.282187e-07
-4.490000e+00 1.316901e-07
-4.480000e+00 1.351212e-07
-4.470000e+00 1.384922e-07
-4.460000e+00 1.417850e-07
-4.450000e+00 1.449841e-07
-4.440000e+00 1.480761e-07
-4.430000e+00 1.510507e-07
-4.420000e+00 1.539001e-07
-4.410000e+00 1.566200e-07
-4.400000e+00 1.592087e-07
-4.390000e+00 1.616680e-07
-4.380000e+00 1.640025e-07
-4.370000e+00 1.662199e-07
-4.360000e+00 1.683306e-07
-4.350000e+00 1.703477e-07
-4.340000e+00 1.722867e-07
-4.330000e+00 1.741651e-07
-4.320000e+00 1.760022e-07
-4.310000e+00 1.778189e-07
-4.300000e+00 1.796370e-07
-4.290000e+00 1.814790e-07
-4.280000e+00 1.833680e-07
-4.270000e+00 1.853268e-07
-4.260000e+00 1.873776e-07
-4.250000e+00 1.895421e-07
-4.240000e+00 1.918408e-07
-4.230000e+00 1.942926e-07
-4.220000e+00 1.969145e-07
-4.210000e+00 1.997217e-07
-4.200000e+00 2.027271e-07
-4.190000e+00 2.059410e-07
-4.180000e+00 2.093713e-07
-4.170000e+00 2.130231e-07
-4.160000e+00 2.168990e-07
-4.150000e+00 2.209986e-07
-4.140000e+00 2.253192e-07
-4.130000e+00 2.298553e-07
-4.120000e+00 2.345992e-07
-4.110000e+00 2.395410e-07
-4.100000e+00 2.446688e-07
-4.090000e+00 2.499687e-07
-4.080000e+00 2.554258e-07
-4.070000e+00 2.610237e-07
-4.060000e+00 2.667454e-07
-4.050000e+00 2.725731e-07
-4.040000e+00 2.784890e-07
-4.030000e+00 2.844754e-07
-4.020000e+00 2.905149e-07
-4.010000e+00 2.965911e-07
-4.000000e+00 3.026883e-07
-3.990000e+00 3.087922e-07
-3.980000e+00 3.148901e-07
-3.970000e+00 3.209707e-07
-3.960000e+00 3.270247e-07
-3.950000e+00 3.330449e-07
-3.940001e+00 3.390259e-07
-3.930000e+00 3.449645e-07
-3.920000e+00 3.508595e-07
-3.910000e+00 3.567119e-07
-3.900001e+00 3.625246e-07
-3.890000e+00 3.683023e-07
-3.880000e+00 3.740515e-07
-3.870000e+00 3.797803e-07
-3.860001e+00 3.854982e-07
-3.850000e+00 3.912156e-07
-3.840000e+00 3.969440e-07
-3.830000e+00 4.026958e-07
-3.820001e+00 4.084833e-07
-3.810000e+00 4.143194e-07
-3.800000e+00 4.202168e-07
-3.790000e+00 4.261877e-07
-3.780000e+00 4.322440e-07
-3.770000e+00 4.383967e-07
-3.760000e+00 4.446561e-07
-3.750000e+00 4.510310e-07
-3.740000e+00 4.575291e-07
-3.730000e+00 4.641570e-07
-3.720000e+00 4.709195e-07
-3.710000e+00 4.778202e-07
-3.700000e+00 4.848611e-07
-3.690001e+00 4.920427e-07
-3.680000e+00 4.993640e-07
-3.670000e+00 5.068229e-07
-3.660000e+00 5.144161e-07
-3.650001e+00 5.221390e-07
-3.640000e+00 5.299860e-07
-3.630000e+00 5.379512e-07
-3.620000e+00 5.460277e-07
-3.610001e+00 5.542085e-07
-3.600000e+00 5.624863e-07
-3.590000e+00 5.708540e-07
-3.580000e+00 5.793048e-07
-3.570001e+00 5.878321e-07
-3.560000e+00 5.964305e-07
-3.550000e+00 6.050950e-07
-3.540000e+00 6.138218e-07
-3.530000e+00 6.226083e-07
-3.520000e+00 6.314532e-07
-3.510000e+00 6.403566e-07
-3.500000e+00 6.493199e-07
-3.490000e+00 6.583460e-07
-3.480000e+00 6.674396e-07
-3.470000e+00 6.766065e-07
-3.460000e+00 6.858542e-07
-3.450000e+00 6.951913e-07
-3.440001e+00 7.046278e-07
-3.430000e+00 7.141749e-07
-3.420000e+00 7.238444e-07
-3.410000e+00 7.336496e-07
-3.400001e+00 7.436037e-07
-3.390000e+00 7.537207e-07
-3.380000e+00 7.640148e-07
-3.370000e+00 7.745003e-07
-3.360001e+00 7.851910e-07
-3.350000e+00 7.961008e-07
-3.340000e+00 8.072427e-07
-3.330000e+00 8.186288e-07
-3.320001e+00 8.302709e-07
-3.310000e+00 8.421792e-07
-3.300000e+00 8.543627e-07
-3.290000e+00 8.668295e-07
-3.280000e+00 8.795858e-07
-3.270000e+00 8.926368e-07
-3.260000e+00 9.059860e-07
-3.250000e+00 9.196353e-07
-3.240000e+00 9.335855e-07
-3.230000e+00 9.478355e-07
-3.220000e+00 9.623832e-07
-3.210000e+00 9.772251e-07
-3.200000e+00 9.923566e-07
-3.190001e+00 1.007772e-06
-3.180000e+00 1.023465e-06
-3.170000e+00 1.039428e-06
-3.160000e+00 1.055652e-06
-3.150001e+00 1.072131e-06
-3.140000e+00 1.088856e-06
-3.130000e+00 1.105818e-06
-3.120000e+00 1.123008e-06
-3.110001e+00 1.140419e-06
-3.100000e+00 1.158043e-06
-3.090000e+00 1.175873e-06
-3.080000e+00 1.193902e-06
-3.070001e+00 1.212126e-06
-3.060000e+00 1.230539e-06
-3.050000e+00 1.249138e-06
-3.040000e+00 1.267919e-06
-3.030000e+00 1.286882e-06
-3.020000e+00 1.306025e-06
-3.010000e+00 1.325350e-06
-3.000000e+00 1.344855e-06
-2.990000e+00 1.364545e-06
-2.980000e+00 1.384422e-06
-2.970000e+00 1.404489e-06
-2.960000e+00 1.424751e-06
-2.950000e+00 1.445211e-06
-2.940001e+00 1.465875e-06
-2.930000e+00 1.486749e-06
-2.920000e+00 1.507836e-06
-2.910000e+00 1.529143e-06
-2.900001e+00 1.550673e-06
-2.890000e+00 1.572432e-06
-2.880000e+00 1.594424e-06
-2.870000e+00 1.616652e-06
-2.860001e+00 1.639119e-06
-2.850000e+00 1.661828e-06
-2.840000e+00 1.684780e-06
-2.830000e+00 1.707975e-06
-2.820001e+00 1.731414e-06
-2.810000e+00 1.755095e-06
-2.800000e+00 1.779018e-06
-2.790000e+00 1.803180e-06
-2.780000e+00 1.827579e-06
-2.770000e+00 1.852210e-06
-2.760000e+00 1.877071e-06
-2.750000e+00 1.902157e-06
-2.740000e+00 1.927465e-06
-2.730000e+00 1.952990e-06
-2.720000e+00 1.978729e-06
-2.710000e+00 2.004678e-06
-2.700000e+00 2.030834e-06
-2.690001e+00 2.057195e-06
-2.680000e+00 2.083759e-06
-2.670000e+00 2.110525e-06
-2.660000e+00 2.137495e-06
-2.650001e+00 2.164669e-06
-2.640000e+00 2.192052e-06
-2.630000e+00 2.219646e-06
-2.620000e+00 2.247458e-06
-2.610001e+00 2.275497e-06
-2.600000e+00 2.303769e-06
-2.590000e+00 2.332285e-06
-2.580000e+00 2.361058e-06
-2.570001e+00 2.390101e-06
-2.560000e+00 2.419427e-06
-2.550000e+00 2.449053e-06
-2.540000e+00 2.478996e-06
-2.530001e+00 2.509272e-06
-2.520000e+00 2.539900e-06
-2.510000e+00 2.570900e-06
-2.500000e+00 2.602291e-06
-2.490000e+00 2.634091e-06
-2.480000e+00 2.666321e-06
-2.470000e+00 2.699000e-06
-2.460000e+00 2.732145e-06
-2.450000e+00 2.765775e-06
-2.440001e+00 2.799908e-06
-2.430000e+00 2.834557e-06
-2.420000e+00 2.869739e-06
-2.410000e+00 2.905466e-06
-2.400001e+00 2.941749e-06
-2.390000e+00 2.978598e-06
-2.380000e+00 3.016019e-06
-2.370000e+00 3.054020e-06
-2.360001e+00 3.092604e-06
-2.350000e+00 3.131772e-06
-2.340000e+00 3.171523e-06
-2.330000e+00 3.211857e-06
-2.320001e+00 3.252767e-06
-2.310000e+00 3.294248e-06
-2.300000e+00 3.336292e-06
-2.290000e+00 3.378889e-06
-2.280001e+00 3.422030e-06
-2.270000e+00 3.465700e-06
-2.260000e+00 3.509887e-06
-2.250000e+00 3.554578e-06
-2.240000e+00 3.599757e-06
-2.230000e+00 3.645409e-06
-2.220000e+00 3.691520e-06
-2.210000e+00 3.738074e-06
-2.200000e+00 3.785056e-06
-2.190001e+00 3.832453e-06
-2.180000e+00 3.880251e-06
-2.170000e+00 3.928440e-06
-2.160000e+00 3.977005e-06
-2.150001e+00 4.025939e-06
-2.140000e+00 4.075234e-06
-2.130000e+00 4.124884e-06
-2.120000e+00 4.174882e-06
-2.110001e+00 4.225227e-06
-2.100000e+00 4.275918e-06
-2.090000e+00 4.326957e-06
-2.080000e+00 4.378346e-06
-2.070001e+00 4.430089e-06
-2.060000e+00 4.482193e-06
-2.050000e+00 4.534667e-06
-2.040000e+00 4.587522e-06
-2.030001e+00 4.640768e-06
-2.020000e+00 4.694418e-06
-2.010000e+00 4.748486e-06
-2.000000e+00 4.802987e-06
-1.990000e+00 4.857937e-06
-1.980000e+00 4.913350e-06
-1.970000e+00 4.969245e-06
-1.960000e+00 5.025638e-06
-1.950000e+00 5.082543e-06
-1.940001e+00 5.139979e-06
-1.930000e+00 5.197960e-06
-1.920000e+00 5.256500e-06
-1.910000e+00 5.315614e-06
-1.900001e+00 5.375314e-06
-1.890000e+00 5.435612e-06
-1.880000e+00 5.496517e-06
-1.870000e+00 5.558039e-06
-1.860001e+00 5.620186e-06
-1.850000e+00 5.682962e-06
-1.840000e+00 5.746371e-06
-1.830000e+00 5.810416e-06
-1.820001e+00 5.875100e-06
-1.810000e+00 5.940421e-06
-1.800000e+00 6.006378e-06
-1.790000e+00 6.072968e-06
-1.780001e+00 6.140188e-06
-1.770000e+00 6.208033e-06
-1.760000e+00 6.276498e-06
-1.750000e+00 6.345577e-06
-1.740000e+00 6.415264e-06
-1.730000e+00 6.485552e-06
-1.720000e+00 6.556437e-06
-1.710000e+00 6.627912e-06
-1.700000e+00 6.699972e-06
-1.690001e+00 6.772613e-06
-1.680000e+00 6.845832e-06
-1.670000e+00 6.919625e-06
-1.660000e+00 6.993992e-06
-1.650001e+00 7.068933e-06
-1.640000e+00 7.144452e-06
-1.630000e+00 7.220550e-06
-1.620000e+00 7.297232e-06
-1.610001e+00 7.374507e-06
-1.600000e+00 7.452381e-06
-1.590000e+00 7.530866e-06
-1.580000e+00 7.609975e-06
-1.570001e+00 7.689718e-06
-1.560000e+00 7.770112e-06
-1.550000e+00 7.851172e-06
-1.540000e+00 7.932916e-06
-1.530001e+00 8.015360e-06
-1.520000e+00 8.098525e-06
-1.510000e+00 8.182427e-06
-1.500000e+00 8.267088e-06
-1.490000e+00 8.352525e-06
-1.480000e+00 8.438755e-06
-1.470000e+00 8.525798e-06
-1.460000e+00 8.613670e-06
-1.450000e+00 8.702386e-06
-1.440001e+00 8.791963e-06
-1.430000e+00 8.882408e-06
-1.420000e+00 8.973734e-06
-1.410000e+00 9.065951e-06
-1.400001e+00 9.159062e-06
-1.390000e+00 9.253074e-06
-1.380000e+00 9.347984e-06
-1.370000e+00 9.443792e-06
-1.360001e+00 9.540495e-06
-1.350000e+00 9.638087e-06
-1.340000e+00 9.736557e-06
-1.330000e+00 9.835894e-06
-1.320001e+00 9.936083e-06
-1.310000e+00 1.003711e-05
-1.300000e+00 1.013896e-05
-1.290000e+00 1.024160e-05
-1.280001e+00 1.034503e-05
-1.270000e+00 1.044921e-05
-1.260000e+00 1.055412e-05
-1.250000e+00 1.065975e-05
-1.240000e+00 1.076606e-05
-1.230000e+00 1.087303e-05
-1.220000e+00 1.098065e-05
-1.210000e+00 1.108888e-05
-1.200000e+00 1.119772e-05
-1.190001e+00 1.130713e-05
-1.180000e+00 1.141711e-05
-1.170000e+00 1.152764e-05
-1.160000e+00 1.163870e-05
-1.150001e+00 1.175030e-05
-1.140000e+00 1.186241e-05
-1.130000e+00 1.197505e-05
-1.120000e+00 1.208820e-05
-1.110001e+00 1.220188e-05
-1.100000e+00 1.231608e-05
-1.090000e+00 1.243082e-05
-1.080000e+00 1.254611e-05
-1.070001e+00 1.266196e-05
-1.060000e+00 1.277839e-05
-1.050000e+00 1.289543e-05
-1.040000e+00 1.301308e-05
-1.030001e+00 1.313139e-05
-1.020000e+00 1.325037e-05