-1.200000e+01 0.000000e+00
-1.199000e+01 0.000000e+00
-1.198000e+01 0.000000e+00
-1.197000e+01 0.000000e+00
-1.196000e+01 1.326101e-28
-1.195000e+01 -2.102130e-25
-1.194000e+01 -2.271099e-24
-1.193000e+01 -1.330274e-23
-1.192000e+01 -5.601749e-23
-1.191000e+01 -1.896922e-22
-1.190000e+01 -5.481750e-22
-1.189000e+01 -1.401800e-21
-1.188000e+01 -3.249557e-21
-1.187000e+01 -6.945535e-21
-1.186000e+01 -1.385909e-20
-1.185000e+01 -2.606094e-20
-1.184000e+01 -4.651767e-20
-1.183000e+01 -7.926464e-20
-1.182000e+01 -1.295135e-19
-1.181000e+01 -2.036357e-19
-1.180000e+01 -3.089494e-19
-1.179000e+01 -4.532253e-19
-1.178000e+01 -6.438225e-19
-1.177000e+01 -8.863616e-19
-1.176000e+01 -1.182856e-18
-1.175000e+01 -1.529241e-18
-1.174000e+01 -1.912274e-18
-1.173000e+01 -2.305823e-18
-1.172000e+01 -2.666625e-18
-1.171000e+01 -2.929671e-18
-1.170000e+01 -3.003439e-18
-1.169000e+01 -2.765313e-18
-1.168000e+01 -2.057581e-18
-1.167000e+01 -6.845297e-19
-1.166000e+01 1.588826e-18
-1.165000e+01 5.035735e-18
-1.164000e+01 9.963803e-18
-1.163000e+01 1.670755e-17
-1.162000e+01 2.561689e-17
-1.161000e+01 3.704102e-17
-1.160000e+01 5.130750e-17
-1.159000e+01 6.869638e-17
-1.158000e+01 8.940966e-17
-1.157000e+01 1.135365e-16
-1.156000e+01 1.410149e-16
-1.155000e+01 1.715920e-16
-1.154000e+01 2.047831e-16
-1.153000e+01 2.398329e-16
-1.152000e+01 2.756809e-16
-1.151000e+01 3.109335e-16
-1.150000e+01 3.438455e-16
-1.149000e+01 3.723151e-16
-1.148000e+01 3.938943e-16
-1.147000e+01 4.058181e-16
-1.146000e+01 4.050545e-16
-1.145000e+01 3.883788e-16
-1.144000e+01 3.524700e-16
-1.143000e+01 2.940340e-16
-1.142000e+01 2.099491e-16
-1.141000e+01 9.743381e-17
-1.140000e+01 -4.576749e-17
-1.139000e+01 -2.211849e-16
-1.138000e+01 -4.294166e-16
-1.137000e+01 -6.699220e-16
-1.136000e+01 -9.408249e-16
-1.135000e+01 -1.238735e-15
-1.134000e+01 -1.558598e-15
-1.133000e+01 -1.893590e-15
-1.132000e+01 -2.235056e-15
-1.131000e+01 -2.572520e-15
-1.130000e+01 -2.893757e-15
-1.129000e+01 -3.184953e-15
-1.128000e+01 -3.430944e-15
-1.127000e+01 -3.615548e-15
-1.126000e+01 -3.721987e-15
-1.125000e+01 -3.733390e-15
-1.124000e+01 -3.633378e-15
-1.123000e+01 -3.406722e-15
-1.122000e+01 -3.040044e-15
-1.121000e+01 -2.522563e-15
-1.120000e+01 -1.846837e-15
-1.119000e+01 -1.009509e-15
-1.118000e+01 -1.199029e-17
-1.117000e+01 1.138923e-15
-1.116000e+01 2.430541e-15
-1.115000e+01 3.843912e-15
-1.114000e+01 5.353626e-15
-1.113000e+01 6.927813e-15
-1.112000e+01 8.528365e-15
-1.111000e+01 1.011140e-14
-1.110000e+01 1.162796e-14
-1.109000e+01 1.302502e-14
-1.108000e+01 1.424667e-14
-1.107000e+01 1.523560e-14
-1.106000e+01 1.593473e-14
-1.105000e+01 1.628916e-14
-1.104000e+01 1.624806e-14
-1.103000e+01 1.576678e-14
-1.102000e+01 1.480897e-14
-1.101000e+01 1.334859e-14
-1.100000e+01 1.137183e-14
-1.099000e+01 8.878883e-15
-1.098000e+01 5.885337e-15
-1.097000e+01 2.423306e-15
-1.096000e+01 -1.457908e-15
-1.095000e+01 -5.691628e-15
-1.094000e+01 -1.019415e-14
-1.093000e+01 -1.486568e-14
-1.092000e+01 -1.959186e-14
-1.091000e+01 -2.424590e-14
-1.090000e+01 -2.869133e-14
-1.089000e+01 -3.278526e-14
-1.088000e+01 -3.638218e-14
-1.087000e+01 -3.933815e-14
-1.086000e+01 -4.151536e-14
-1.085000e+01 -4.278680e-14
-1.084000e+01 -4.304110e-14
-1.083000e+01 -4.218721e-14
-1.082000e+01 -4.015892e-14
-1.081000e+01 -3.691885e-14
-1.080000e+01 -3.246203e-14
-1.079000e+01 -2.681865e-14
-1.078000e+01 -2.005597e-14
-1.077000e+01 -1.227928e-14
-1.076000e+01 -3.631647e-15
-1.075000e+01 5.707369e-15
-1.074000e+01 1.552437e-14
-1.073000e+01 2.557591e-14
-1.072000e+01 3.559360e-14
-1.071000e+01 4.529024e-14
-1.070000e+01 5.436708e-14
-1.069000e+01 6.252195e-14
-1.068000e+01 6.945803e-14
-1.067000e+01 7.489319e-14
-1.066000e+01 7.856945e-14
-1.065000e+01 8.026244e-14
-1.064000e+01 7.979048e-14
-1.063000e+01 7.702303e-14
-1.062000e+01 7.188814e-14
-1.061000e+01 6.437867e-14
-1.060000e+01 5.455693e-14
-1.059000e+01 4.255760e-14
-1.058000e+01 2.858865e-14
-1.057000e+01 1.293009e-14
-1.056000e+01 -4.069474e-15
-1.055000e+01 -2.199858e-14
-1.054000e+01 -4.039092e-14
-1.053000e+01 -5.873549e-14
-1.052000e+01 -7.648870e-14
-1.051000e+01 -9.308822e-14
-1.050000e+01 -1.079683e-13
-1.049000e+01 -1.205761e-13
-1.048000e+01 -1.303887e-13
-1.047000e+01 -1.369303e-13
-1.046000e+01 -1.397890e-13
-1.045000e+01 -1.386325e-13
-1.044000e+01 -1.332235e-13
-1.043000e+01 -1.234316e-13
-1.042000e+01 -1.092442e-13
-1.041000e+01 -9.077394e-14
-1.040000e+01 -6.826324e-14
-1.039000e+01 -4.208512e-14
-1.038000e+01 -1.274065e-14
-1.037000e+01 1.914771e-14
-1.036000e+01 5.284637e-14
-1.035000e+01 8.752475e-14
-1.034000e+01 1.222729e-13
-1.033000e+01 1.561222e-13
-1.032000e+01 1.880692e-13
-1.031000e+01 2.171013e-13
-1.030000e+01 2.422242e-13
-1.029000e+01 2.624905e-13
-1.028000e+01 2.770281e-13
-1.027000e+01 2.850685e-13
-1.026000e+01 2.859731e-13
-1.025000e+01 2.792578e-13
-1.024000e+01 2.646141e-13
-1.023000e+01 2.419271e-13
-1.022000e+01 2.112883e-13
-1.021000e+01 1.730043e-13
-1.020000e+01 1.275995e-13
-1.019000e+01 7.581316e-14
-1.018000e+01 1.859099e-14
-1.017000e+01 -4.292982e-14
-1.016000e+01 -1.074408e-13
-1.015000e+01 -1.734880e-13
-1.014000e+01 -2.395029e-13
-1.013000e+01 -3.038376e-13
-1.012000e+01 -3.648034e-13
-1.011000e+01 -4.207125e-13
-1.010000e+01 -4.699210e-13
-1.009000e+01 -5.108727e-13
-1.008000e+01 -5.421424e-13
-1.007000e+01 -5.624775e-13
-1.006000e+01 -5.708372e-13
-1.005000e+01 -5.664267e-13
-1.004000e+01 -5.487279e-13
-1.003000e+01 -5.175230e-13
-1.002000e+01 -4.729119e-13
-1.001000e+01 -4.153221e-13
-1.000000e+01 -3.455110e-13
-9.990000e+00 -2.645594e-13
-9.980000e+00 -1.738572e-13
-9.970000e+00 -7.508063e-14
-9.960000e+00 2.983810e-14
-9.950000e+00 1.387488e-13
-9.940001e+00 2.493277e-13
-9.930000e+00 3.591273e-13
-9.920000e+00 4.656315e-13
-9.910000e+00 5.663130e-13
-9.900000e+00 6.586937e-13
-9.890000e+00 7.404049e-13
-9.880000e+00 8.092468e-13
-9.870000e+00 8.632458e-13
-9.860001e+00 9.007073e-13
-9.850000e+00 9.202639e-13
-9.840000e+00 9.209167e-13
-9.830000e+00 9.020682e-13
-9.820000e+00 8.635478e-13
-9.809999e+00 8.056263e-13
-9.800000e+00 7.290217e-13
-9.790000e+00 6.348929e-13
-9.780000e+00 5.248245e-13
-9.770000e+00 4.008003e-13
-9.760000e+00 2.651664e-13
-9.750000e+00 1.205863e-13
-9.740000e+00 -3.001333e-14
-9.730000e+00 -1.835039e-13
-9.720000e+00 -3.366222e-13
-9.710000e+00 -4.860418e-13
-9.700000e+00 -6.284477e-13
-9.690001e+00 -7.606119e-13
-9.680000e+00 -8.794684e-13
-9.670000e+00 -9.821857e-13
-9.660000e+00 -1.066236e-12
-9.650000e+00 -1.129455e-12
-9.640000e+00 -1.170103e-12
-9.630000e+00 -1.186906e-12
-9.620000e+00 -1.179094e-12
-9.610001e+00 -1.146428e-12
-9.600000e+00 -1.089213e-12
-9.590000e+00 -1.008300e-12
-9.580000e+00 -9.050750e-13
-9.570000e+00 -7.814363e-13
-9.559999e+00 -6.397604e-13
-9.550000e+00 -4.828550e-13
-9.540000e+00 -3.139025e-13
-9.530000e+00 -1.363945e-13
-9.520000e+00 4.594227e-14
-9.510000e+00 2.292255e-13
-9.500000e+00 4.095023e-13
-9.490000e+00 5.828358e-13
-9.480000e+00 7.453929e-13
-9.470000e+00 8.935318e-13
-9.460000e+00 1.023884e-12
-9.450000e+00 1.133432e-12
-9.440001e+00 1.219584e-12
-9.430000e+00 1.280229e-12
-9.420000e+00 1.313797e-12
-9.410000e+00 1.319293e-12
-9.400000e+00 1.296330e-12
-9.390000e+00 1.245138e-12
-9.380000e+00 1.166572e-12
-9.370000e+00 1.062091e-12
-9.360001e+00 9.337379e-13
-9.350000e+00 7.840957e-13
-9.340000e+00 6.162355e-13
-9.330000e+00 4.336530e-13
-9.320000e+00 2.401938e-13
-9.309999e+00 3.997115e-14
-9.300000e+00 -1.627233e-13
-9.290000e+00 -3.635136e-13
-9.280000e+00 -5.580355e-13
-9.270000e+00 -7.420338e-13
-9.260000e+00 -9.114568e-13
-9.250000e+00 -1.062548e-12
-9.240000e+00 -1.191930e-12
-9.230000e+00 -1.296682e-12
-9.220000e+00 -1.374405e-12
-9.210000e+00 -1.423282e-12
-9.200000e+00 -1.442112e-12
-9.190001e+00 -1.430346e-12
-9.180000e+00 -1.388098e-12
-9.170000e+00 -1.316144e-12
-9.160000e+00 -1.215907e-12
-9.150000e+00 -1.089424e-12
-9.140000e+00 -9.393052e-13
-9.130000e+00 -7.686712e-13
-9.120000e+00 -5.810881e-13
-9.110001e+00 -3.804861e-13
-9.100000e+00 -1.710722e-13
-9.090000e+00 4.276365e-14
-9.080000e+00 2.565458e-13
-9.070000e+00 4.658124e-13
-9.060000e+00 6.662143e-13
-9.050000e+00 8.536095e-13
-9.040000e+00 1.024155e-12
-9.030000e+00 1.174388e-12
-9.020000e+00 1.301300e-12
-9.010000e+00 1.402400e-12
-9.000000e+00 1.475764e-12
-8.990000e+00 1.520072e-12
-8.980000e+00 1.534628e-12
-8.970000e+00 1.519374e-12
-8.960000e+00 1.474874e-12
-8.950000e+00 1.402300e-12
-8.940001e+00 1.303396e-12
-8.930000e+00 1.180427e-12
-8.920000e+00 1.036124e-12
-8.910000e+00 8.736169e-13
-8.900000e+00 6.963535e-13
-8.890000e+00 5.080228e-13
-8.880000e+00 3.124682e-13
-8.870000e+00 1.136001e-13
-8.860001e+00 -8.468869e-14
-8.850000e+00 -2.786071e-13
-8.840000e+00 -4.645436e-13
-8.830000e+00 -6.391381e-13
-8.820000e+00 -7.993460e-13
-8.810000e+00 -9.424919e-13
-8.800000e+00 -1.066314e-12
-8.790000e+00 -1.168997e-12
-8.780000e+00 -1.249192e-12
-8.770000e+00 -1.306029e-12
-8.760000e+00 -1.339113e-12
-8.750000e+00 -1.348516e-12
-8.740000e+00 -1.334750e-12
-8.730000e+00 -1.298743e-12
-8.720000e+00 -1.241797e-12
-8.710000e+00 -1.165549e-12
-8.700000e+00 -1.071920e-12
-8.690001e+00 -9.630689e-13
-8.680000e+00 -8.413397e-13
-8.670000e+00 -7.092107e-13
-8.660000e+00 -5.692465e-13
-8.650000e+00 -4.240519e-13
-8.640000e+00 -2.762299e-13
-8.630000e+00 -1.283449e-13
-8.620000e+00 1.710991e-14
-8.610001e+00 1.577390e-13
-8.600000e+00 2.912655e-13
-8.590000e+00 4.155476e-13
-8.580000e+00 5.285895e-13
-8.570000e+00 6.285496e-13
-8.560000e+00 7.137437e-13
-8.550000e+00 7.826477e-13
-8.540000e+00 8.338974e-13
-8.530000e+00 8.662898e-13
-8.520000e+00 8.787832e-13
-8.510000e+00 8.704995e-13
-8.500000e+00 8.407289e-13
-8.490000e+00 7.889365e-13
-8.480000e+00 7.147723e-13
-8.470000e+00 6.180837e-13
-8.460000e+00 4.989304e-13
-8.450000e+00 3.576022e-13
-8.440001e+00 1.946366e-13
-8.430000e+00 1.083879e-14
-8.420000e+00 -1.927008e-13
-8.410000e+00 -4.145906e-13
-8.400000e+00 -6.531253e-13
-8.390000e+00 -9.062787e-13
-8.380000e+00 -1.171702e-12
-8.370000e+00 -1.446732e-12
-8.360001e+00 -1.728404e-12
-8.350000e+00 -2.013479e-12
-8.340000e+00 -2.298480e-12
-8.330000e+00 -2.579735e-12
-8.320000e+00 -2.853436e-12
-8.310000e+00 -3.115706e-12
-8.300000e+00 -3.362672e-12
-8.290000e+00 -3.590549e-12
-8.280000e+00 -3.795731e-12
-8.270000e+00 -3.974879e-12
-8.260000e+00 -4.125020e-12
-8.250000e+00 -4.243635e-12
-8.240000e+00 -4.328748e-12
-8.230000e+00 -4.379008e-12
-8.220000e+00 -4.393758e-12
-8.210000e+00 -4.373088e-12
-8.200000e+00 -4.317885e-12
-8.190001e+00 -4.229850e-12
-8.180000e+00 -4.111503e-12
-8.170000e+00 -3.966166e-12
-8.160000e+00 -3.797922e-12
-8.150000e+00 -3.611558e-12
-8.140000e+00 -3.412479e-12
-8.130000e+00 -3.206603e-12
-8.120000e+00 -3.000243e-12
-8.110001e+00 -2.799970e-12
-8.100000e+00 -2.612460e-12
-8.090000e+00 -2.444339e-12
-8.080000e+00 -2.302015e-12
-8.070000e+00 -2.191520e-12
-8.060000e+00 -2.118344e-12
-8.050000e+00 -2.087285e-12
-8.040000e+00 -2.102316e-12
-8.030000e+00 -2.166457e-12
-8.020000e+00 -2.281683e-12
-8.010000e+00 -2.448846e-12
-8.000000e+00 -2.667632e-12
-7.990000e+00 -2.936542e-12
-7.980000e+00 -3.252910e-12
-7.970000e+00 -3.612944e-12
-7.960000e+00 -4.011811e-12
-7.950000e+00 -4.443736e-12
-7.940000e+00 -4.902137e-12
-7.930000e+00 -5.379786e-12
-7.920000e+00 -5.868978e-12
-7.910000e+00 -6.361727e-12
-7.900000e+00 -6.849966e-12
-7.890000e+00 -7.325755e-12
-7.880000e+00 -7.781475e-12
-7.870000e+00 -8.210038e-12
-7.860000e+00 -8.605059e-12
-7.850000e+00 -8.961026e-12
-7.840000e+00 -9.273444e-12
-7.830000e+00 -9.538944e-12
-7.820000e+00 -9.755374e-12
-7.810000e+00 -9.921845e-12
-7.800000e+00 -1.003875e-11
-7.790000e+00 -1.010774e-11
-7.780000e+00 -1.013169e-11
-7.770000e+00 -1.011459e-11
-7.760000e+00 -1.006144e-11
-7.750000e+00 -9.978105e-12
-7.740000e+00 -9.871156e-12
-7.730000e+00 -9.747684e-12
-7.720000e+00 -9.615107e-12
-7.710000e+00 -9.480972e-12
-7.700000e+00 -9.352751e-12
-7.690000e+00 -9.237657e-12
-7.680000e+00 -9.142452e-12
-7.670000e+00 -9.073292e-12
-7.660000e+00 -9.035579e-12
-7.650000e+00 -9.033846e-12
-7.640000e+00 -9.071670e-12
-7.630000e+00 -9.151615e-12
-7.620000e+00 -9.275205e-12
-7.610000e+00 -9.442931e-12
-7.600000e+00 -9.654289e-12
-7.590000e+00 -9.907847e-12
-7.580000e+00 -1.020134e-11
-7.570000e+00 -1.053177e-11
-7.560000e+00 -1.089556e-11
-7.550000e+00 -1.128868e-11
-7.540000e+00 -1.170680e-11
-7.530000e+00 -1.214547e-11
-7.520000e+00 -1.260023e-11
-7.510000e+00 -1.306676e-11
-7.500000e+00 -1.354104e-11
-7.490000e+00 -1.401943e-11
-7.480000e+00 -1.449876e-11
-7.470000e+00 -1.497641e-11
-7.460000e+00 -1.545033e-11
-7.450000e+00 -1.591909e-11
-7.440000e+00 -1.638184e-11
-7.430000e+00 -1.683828e-11
-7.420000e+00 -1.728861e-11
-7.410000e+00 -1.773346e-11
-7.400000e+00 -1.817381e-11
-7.390000e+00 -1.861085e-11
-7.380000e+00 -1.904592e-11
-7.370000e+00 -1.948040e-11
-7.360000e+00 -1.991558e-11
-7.350000e+00 -2.035258e-11
-7.340000e+00 -2.079229e-11
-7.330000e+00 -2.123528e-11
-7.320000e+00 -2.168177e-11
-7.310000e+00 -2.213161e-11
-7.300000e+00 -2.258427e-11
-7.290000e+00 -2.303886e-11
-7.280000e+00 -2.349420e-11
-7.270000e+00 -2.394887e-11
-7.260000e+00 -2.440128e-11
-7.250000e+00 -2.484980e-11
-7.240000e+00 -2.529286e-11
-7.230000e+00 -2.572904e-11
-7.220000e+00 -2.615720e-11
-7.210000e+00 -2.657662e-11
-7.200000e+00 -2.698705e-11
-7.190000e+00 -2.738882e-11
-7.180000e+00 -2.778291e-11
-7.170000e+00 -2.817099e-11
-7.160000e+00 -2.855542e-11
-7.150000e+00 -2.893928e-11
-7.140000e+00 -2.932627e-11
-7.130000e+00 -2.972071e-11
-7.120000e+00 -3.012738e-11
-7.110000e+00 -3.055146e-11
-7.100000e+00 -3.099835e-11
-7.090000e+00 -3.147351e-11
-7.080000e+00 -3.198231e-11
-7.070000e+00 -3.252986e-11
-7.060000e+00 -3.312080e-11
-7.050000e+00 -3.375916e-11
-7.040000e+00 -3.444819e-11
-7.030000e+00 -3.519026e-11
-7.020000e+00 -3.598668e-11
-7.010000e+00 -3.683767e-11
-7.000000e+00 -3.774232e-11
-6.990000e+00 -3.869853e-11
-6.980000e+00 -3.970307e-11
-6.970000e+00 -4.075166e-11
-6.960000e+00 -4.183901e-11
-6.950000e+00 -4.295904e-11
-6.940000e+00 -4.410495e-11
-6.930000e+00 -4.526951e-11
-6.920000e+00 -4.644519e-11
-6.910000e+00 -4.762446e-11
-6.900000e+00 -4.879995e-11
-6.890000e+00 -4.996475e-11
-6.880000e+00 -5.111257e-11
-6.870000e+00 -5.223797e-11
-6.860000e+00 -5.333658e-11
-6.850000e+00 -5.440518e-11
-6.840000e+00 -5.544186e-11
-6.830000e+00 -5.644607e-11
-6.820000e+00 -5.741870e-11
-6.810000e+00 -5.836200e-11
-6.800000e+00 -5.927956e-11
-6.790000e+00 -6.017624e-11
-6.780000e+00 -6.105794e-11
-6.770000e+00 -6.193154e-11
-6.760000e+00 -6.280460e-11
-6.750000e+00 -6.368519e-11
-6.740000e+00 -6.458162e-11
-6.730000e+00 -6.550221e-11
-6.720000e+00 -6.645501e-11
-6.710000e+00 -6.744760e-11
-6.700000e+00 -6.848684e-11
-6.690000e+00 -6.957869e-11
-6.680000e+00 -7.072805e-11
-6.670000e+00 -7.193861e-11
-6.660000e+00 -7.321279e-11
-6.650000e+00 -7.455170e-11
-6.640000e+00 -7.595513e-11
-6.630000e+00 -7.742162e-11
-6.620000e+00 -7.894854e-11
-6.610000e+00 -8.053224e-11
-6.600000e+00 -8.216822e-11
-6.590000e+00 -8.385126e-11
-6.580000e+00 -8.557578e-11
-6.570000e+00 -8.733592e-11
-6.560000e+00 -8.912589e-11
-6.550000e+00 -9.094010e-11
-6.540000e+00 -9.277350e-11
-6.530000e+00 -9.462165e-11
-6.520000e+00 -9.648098e-11
-6.510000e+00 -9.834888e-11
-6.500000e+00 -1.002238e-10
-6.490000e+00 -1.021054e-10
-6.480000e+00 -1.039944e-10
-6.470000e+00 -1.058926e-10
-6.460000e+00 -1.078028e-10
-6.450000e+00 -1.097289e-10
-6.440000e+00 -1.116753e-10
-6.430000e+00 -1.136471e-10
-6.420000e+00 -1.156498e-10
-6.410000e+00 -1.176890e-10
-6.400000e+00 -1.197702e-10
-6.390000e+00 -1.218986e-10
-6.380000e+00 -1.240790e-10
-6.370000e+00 -1.263154e-10
-6.360000e+00 -1.286110e-10
-6.350000e+00 -1.309680e-10
-6.340000e+00 -1.333877e-10
-6.330000e+00 -1.358700e-10
-6.320000e+00 -1.384139e-10
-6.310000e+00 -1.410175e-10
-6.300000e+00 -1.436776e-10
-6.290000e+00 -1.463903e-10
-6.280000e+00 -1.491512e-10
-6.270000e+00 -1.519553e-10
-6.260000e+00 -1.547974e-10
-6.250000e+00 -1.576723e-10
-6.240000e+00 -1.605749e-10
-6.230000e+00 -1.635009e-10
-6.220000e+00 -1.664464e-10
-6.210000e+00 -1.694085e-10
-6.200000e+00 -1.723855e-10
-6.190000e+00 -1.753765e-10
-6.180000e+00 -1.783823e-10
-6.170000e+00 -1.814048e-10
-6.160000e+00 -1.844472e-10
-6.150000e+00 -1.875141e-10
-6.140000e+00 -1.906109e-10
-6.130000e+00 -1.937444e-10
-6.120000e+00 -1.969219e-10
-6.110000e+00 -2.001512e-10
-6.100000e+00 -2.034407e-10
-6.090000e+00 -2.067985e-10
-6.080000e+00 -2.102327e-10
-6.070000e+00 -2.137507e-10
-6.060000e+00 -2.173592e-10
-6.050000e+00 -2.210639e-10
-6.040000e+00 -2.248693e-10
-6.030000e+00 -2.287785e-10
-6.020000e+00 -2.327931e-10
-6.010000e+00 -2.369132e-10
-6.000000e+00 -2.411375e-10
-5.990000e+00 -2.454630e-10
-5.980000e+00 -2.498854e-10
-5.970000e+00 -2.543994e-10
-5.960000e+00 -2.589986e-10
-5.950000e+00 -2.636757e-10
-5.940000e+00 -2.684233e-10
-5.930000e+00 -2.732334e-10
-5.920000e+00 -2.780987e-10
-5.910000e+00 -2.830120e-10
-5.900000e+00 -2.879670e-10
-5.890000e+00 -2.929585e-10
-5.880000e+00 -2.979824e-10
-5.870000e+00 -3.030365e-10
-5.860000e+00 -3.081197e-10
-5.850000e+00 -3.132331e-10
-5.840000e+00 -3.183792e-10
-5.830000e+00 -3.235626e-10
-5.820000e+00 -3.287890e-10
-5.810000e+00 -3.340661e-10
-5.800000e+00 -3.394023e-10
-5.790000e+00 -3.448075e-10
-5.780000e+00 -3.502919e-10
-5.770000e+00 -3.558662e-10
-5.760000e+00 -3.615413e-10
-5.750000e+00 -3.673275e-10
-5.740000e+00 -3.732346e-10
-5.730000e+00 -3.792714e-10
-5.720000e+00 -3.854455e-10
-5.710000e+00 -3.917630e-10
-5.700000e+00 -3.982283e-10
-5.690000e+00 -4.048441e-10
-5.680000e+00 -4.116113e-10
-5.670000e+00 -4.185289e-10
-5.660000e+00 -4.255943e-10
-5.650000e+00 -4.328032e-10
-5.640000e+00 -4.401501e-10
-5.630000e+00 -4.476280e-10
-5.620000e+00 -4.552295e-10
-5.610000e+00 -4.629466e-10
-5.600000e+00 -4.707711e-10
-5.590000e+00 -4.786950e-10
-5.580000e+00 -4.867111e-10
-5.570000e+00 -4.948130e-10
-5.560000e+00 -5.029955e-10
-5.550000e+00 -5.112550e-10
-5.540000e+00 -5.195895e-10
-5.530000e+00 -5.279989e-10
-5.520000e+00 -5.364850e-10
-5.510000e+00 -5.450515e-10
-5.500000e+00 -5.537040e-10
-5.490000e+00 -5.624497e-10
-5.480000e+00 -5.712972e-10
-5.470000e+00 -5.802565e-10
-5.460000e+00 -5.893384e-10
-5.450000e+00 -5.985542e-10
-5.440000e+00 -6.079153e-10
-5.430000e+00 -6.174330e-10
-5.420000e+00 -6.271179e-10
-5.410000e+00 -6.369795e-10
-5.400000e+00 -6.470261e-10
-5.390000e+00 -6.572644e-10
-5.380000e+00 -6.676990e-10
-5.370000e+00 -6.783328e-10
-5.360000e+00 -6.891666e-10
-5.350000e+00 -7.001986e-10
-5.340000e+00 -7.114258e-10
-5.330000e+00 -7.228427e-10
-5.320000e+00 -7.344424e-10
-5.310000e+00 -7.462168e-10
-5.300000e+00 -7.581566e-10
-5.290000e+00 -7.702521e-10
-5.280000e+00 -7.824936e-10
-5.270000e+00 -7.948714e-10
-5.260000e+00 -8.073769e-10
-5.250000e+00 -8.200026e-10
-5.240000e+00 -8.327424e-10
-5.230000e+00 -8.455927e-10
-5.220000e+00 -8.585516e-10
-5.210000e+00 -8.716199e-10
-5.200000e+00 -8.848011e-10
-5.190000e+00 -8.981011e-10
-5.180000e+00 -9.115284e-10
-5.170000e+00 -9.250942e-10
-5.160000e+00 -9.388115e-10
-5.150000e+00 -9.526954e-10
-5.140000e+00 -9.667623e-10
-5.130000e+00 -9.810298e-10
-5.120000e+00 -9.955159e-10
-5.110000e+00 -1.010239e-09
-5.100000e+00 -1.025215e-09
-5.090000e+00 -1.040463e-09
-5.080000e+00 -1.055996e-09
-5.070000e+00 -1.071827e-09
-5.060000e+00 -1.087966e-09
-5.050000e+00 -1.104423e-09
-5.040000e+00 -1.121201e-09
-5.030000e+00 -1.138303e-09
-5.020000e+00 -1.155727e-09
-5.010000e+00 -1.173470e-09
-5.000000e+00 -1.191524e-09
-4.990000e+00 -1.209880e-09
-4.980000e+00 -1.228527e-09
-4.970000e+00 -1.247452e-09
-4.960000e+00 -1.266641e-09
-4.950000e+00 -1.286078e-09
-4.940000e+00 -1.305750e-09
-4.930000e+00 -1.325641e-09
-4.920000e+00 -1.345740e-09
-4.910000e+00 -1.366033e-09
-4.900000e+00 -1.386512e-09
-4.890000e+00 -1.407171e-09
-4.880000e+00 -1.428005e-09
-4.870000e+00 -1.449013e-09
-4.860000e+00 -1.470198e-09
-4.850000e+00 -1.491564e-09
-4.840000e+00 -1.513122e-09
-4.830000e+00 -1.534881e-09
-4.820000e+00 -1.556857e-09
-4.810000e+00 -1.579064e-09
-4.800000e+00 -1.601521e-09
-4.790000e+00 -1.624247e-09
-4.780000e+00 -1.647261e-09
-4.770000e+00 -1.670583e-09
-4.760000e+00 -1.694231e-09
-4.750000e+00 -1.718223e-09
-4.740000e+00 -1.742576e-09
-4.730000e+00 -1.767303e-09
-4.720000e+00 -1.792416e-09
-4.710000e+00 -1.817924e-09
-4.700000e+00 -1.843832e-09
-4.690000e+00 -1.870144e-09
-4.680000e+00 -1.896860e-09
-4.670000e+00 -1.923977e-09
-4.660000e+00 -1.951490e-09
-4.650000e+00 -1.979392e-09
-4.640000e+00 -2.007673e-09
-4.630000e+00 -2.036323e-09
-4.620000e+00 -2.065332e-09
-4.610000e+00 -2.094689e-09
-4.600000e+00 -2.124383e-09
-4.590000e+00 -2.154406e-09
-4.580000e+00 -2.184749e-09
-4.570000e+00 -2.215407e-09
-4.560000e+00 -2.246378e-09
-4.550000e+00 -2.277660e-09
-4.540000e+00 -2.309258e-09
-4.530000e+00 -2.341176e-09
-4.520000e+00 -2.373423e-09
-4.510000e+00 -2.406012e-09
-4.500000e+00 -2.438957e-09
-4.490000e+00 -2.472274e-09
-4.480000e+00 -2.505981e-09
-4.470000e+00 -2.540100e-09
-4.460000e+00 -2.574649e-09
-4.450000e+00 -2.609651e-09
-4.440000e+00 -2.645125e-09
-4.430000e+00 -2.681090e-09
-4.420000e+00 -2.717564e-09
-4.410000e+00 -2.754561e-09
-4.400000e+00 -2.792095e-09
-4.390000e+00 -2.830173e-09
-4.380000e+00 -2.868805e-09
-4.370000e+00 -2.907990e-09
-4.360000e+00 -2.947729e-09
-4.350000e+00 -2.988018e-09
-4.340000e+00 -3.028850e-09
-4.330000e+00 -3.070216e-09
-4.320000e+00 -3.112102e-09
-4.310000e+00 -3.154496e-09
-4.300000e+00 -3.197382e-09
-4.290000e+00 -3.240745e-09
-4.280000e+00 -3.284570e-09
-4.270000e+00 -3.328842e-09
-4.260000e+00 -3.373549e-09
-4.250000e+00 -3.418679e-09
-4.240000e+00 -3.464226e-09
-4.230000e+00 -3.510184e-09
-4.220000e+00 -3.556551e-09
-4.210000e+00 -3.603331e-09
-4.200000e+00 -3.650529e-09
-4.190000e+00 -3.698156e-09
-4.180000e+00 -3.746224e-09
-4.170000e+00 -3.794751e-09
-4.160000e+00 -3.843756e-09
-4.150000e+00 -3.893263e-09
-4.140000e+00 -3.943295e-09
-4.130000e+00 -3.993878e-09
-4.120000e+00 -4.045037e-09
-4.110000e+00 -4.096798e-09
-4.100000e+00 -4.149187e-09
-4.090000e+00 -4.202228e-09
-4.080000e+00 -4.255940e-09
-4.070000e+00 -4.310343e-09
-4.060000e+00 -4.365452e-09
-4.050000e+00 -4.421280e-09
-4.040000e+00 -4.477835e-09
-4.030000e+00 -4.535120e-09
-4.020000e+00 -4.593138e-09
-4.010000e+00 -4.651886e-09
-4.000000e+00 -4.711358e-09
-3.990000e+00 -4.771546e-09
-3.980000e+00 -4.832439e-09
-3.970000e+00 -4.894025e-09
-3.960000e+00 -4.956290e-09
-3.950000e+00 -5.019221e-09
-3.940001e+00 -5.082806e-09
-3.930000e+00 -5.147031e-09
-3.920000e+00 -5.211886e-09
-3.910000e+00 -5.277364e-09
-3.900001e+00 -5.343457e-09
-3.890000e+00 -5.410164e-09
-3.880000e+00 -5.477486e-09
-3.870000e+00 -5.545426e-09
-3.860001e+00 -5.613992e-09
-3.850000e+00 -5.683195e-09
-3.840000e+00 -5.753050e-09
-3.830000e+00 -5.823571e-09
-3.820001e+00 -5.894781e-09
-3.810000e+00 -5.966697e-09
-3.800000e+00 -6.039344e-09
-3.790000e+00 -6.112742e-09
-3.780000e+00 -6.186914e-09
-3.770000e+00 -6.261882e-09
-3.760000e+00 -6.337666e-09
-3.750000e+00 -6.414284e-09
-3.740000e+00 -6.491751e-09
-3.730000e+00 -6.570081e-09
-3.720000e+00 -6.649284e-09
-3.710000e+00 -6.729365e-09
-3.700000e+00 -6.810329e-09
-3.690001e+00 -6.892174e-09
-3.680000e+00 -6.974900e-09
-3.670000e+00 -7.058501e-09
-3.660000e+00 -7.142968e-09
-3.650001e+00 -7.228294e-09
-3.640000e+00 -7.314468e-09
-3.630000e+00 -7.401479e-09
-3.620000e+00 -7.489318e-09
-3.610001e+00 -7.577972e-09
-3.600000e+00 -7.667437e-09
-3.590000e+00 -7.757707e-09
-3.580000e+00 -7.848776e-09
-3.570001e+00 -7.940645e-09
-3.560000e+00 -8.033316e-09
-3.550000e+00 -8.126797e-09
-3.540000e+00 -8.221093e-09
-3.530000e+00 -8.316221e-09
-3.520000e+00 -8.412194e-09
-3.510000e+00 -8.509033e-09
-3.500000e+00 -8.606756e-09
-3.490000e+00 -8.705388e-09
-3.480000e+00 -8.804950e-09
-3.470000e+00 -8.905468e-09
-3.460000e+00 -9.006967e-09
-3.450000e+00 -9.109467e-09
-3.440001e+00 -9.212994e-09
-3.430000e+00 -9.317565e-09
-3.420000e+00 -9.423197e-09
-3.410000e+00 -9.529908e-09
-3.400001e+00 -9.637705e-09
-3.390000e+00 -9.746596e-09
-3.380000e+00 -9.856587e-09
-3.370000e+00 -9.967676e-09
-3.360001e+00 -1.007986e-08
-3.350000e+00 -1.019314e-08
-3.340000e+00 -1.030749e-08
-3.330000e+00 -1.042292e-08
-3.320001e+00 -1.053940e-08
-3.310000e+00 -1.065693e-08
-3.300000e+00 -1.077550e-08
-3.290000e+00 -1.089508e-08
-3.280000e+00 -1.101566e-08
-3.270000e+00 -1.113725e-08
-3.260000e+00 -1.125982e-08
-3.250000e+00 -1.138338e-08
-3.240000e+00 -1.150793e-08
-3.230000e+00 -1.163346e-08
-3.220000e+00 -1.175999e-08
-3.210000e+00 -1.188751e-08
-3.200000e+00 -1.201605e-08
-3.190001e+00 -1.214563e-08
-3.180000e+00 -1.227625e-08
-3.170000e+00 -1.240795e-08
-3.160000e+00 -1.254073e-08
-3.150001e+00 -1.267464e-08
-3.140000e+00 -1.280969e-08
-3.130000e+00 -1.294590e-08
-3.120000e+00 -1.308331e-08
-3.110001e+00 -1.322192e-08
-3.100000e+00 -1.336176e-08
-3.090000e+00 -1.350285e-08
-3.080000e+00 -1.364519e-08
-3.070001e+00 -1.378880e-08
-3.060000e+00 -1.393369e-08
-3.050000e+00 -1.407985e-08
-3.040000e+00 -1.422728e-08
-3.030000e+00 -1.437599e-08
-3.020000e+00 -1.452595e-08
-3.010000e+00 -1.467717e-08
-3.000000e+00 -1.482962e-08
-2.990000e+00 -1.498331e-08
-2.980000e+00 -1.513820e-08
-2.970000e+00 -1.529430e-08
-2.960000e+00 -1.545158e-08
-2.950000e+00 -1.561003e-08
-2.940001e+00 -1.576966e-08
-2.930000e+00 -1.593044e-08
-2.920000e+00 -1.609238e-08
-2.910000e+00 -1.625549e-08
-2.900001e+00 -1.641975e-08
-2.890000e+00 -1.658519e-08
-2.880000e+00 -1.675182e-08
-2.870000e+00 -1.691964e-08
-2.860001e+00 -1.708869e-08
-2.850000e+00 -1.725897e-08
-2.840000e+00 -1.743051e-08
-2.830000e+00 -1.760334e-08
-2.820001e+00 -1.777749e-08
-2.810000e+00 -1.795297e-08
-2.800000e+00 -1.812982e-08
-2.790000e+00 -1.830804e-08
-2.780000e+00 -1.848767e-08
-2.770000e+00 -1.866872e-08
-2.760000e+00 -1.885121e-08
-2.750000e+00 -1.903514e-08
-2.740000e+00 -1.922052e-08
-2.730000e+00 -1.940735e-08
-2.720000e+00 -1.959563e-08
-2.710000e+00 -1.978535e-08
-2.700000e+00 -1.997650e-08
-2.690001e+00 -2.016908e-08
-2.680000e+00 -2.036304e-08
-2.670000e+00 -2.055840e-08
-2.660000e+00 -2.075512e-08
-2.650001e+00 -2.095318e-08
-2.640000e+00 -2.115257e-08
-2.630000e+00 -2.135326e-08
-2.620000e+00 -2.155524e-08
-2.610001e+00 -2.175849e-08
-2.600000e+00 -2.196301e-08
-2.590000e+00 -2.216878e-08
-2.580000e+00 -2.237580e-08
-2.570001e+00 -2.258408e-08
-2.560000e+00 -2.279361e-08
-2.550000e+00 -2.300442e-08
-2.540000e+00 -2.321650e-08
-2.530001e+00 -2.342988e-08
-2.520000e+00 -2.364458e-08
-2.510000e+00 -2.386061e-08
-2.500000e+00 -2.407800e-08
-2.490000e+00 -2.429678e-08
-2.480000e+00 -2.451697e-08
-2.470000e+00 -2.473858e-08
-2.460000e+00 -2.496166e-08
-2.450000e+00 -2.518620e-08
-2.440001e+00 -2.541224e-08
-2.430000e+00 -2.563978e-08
-2.420000e+00 -2.586883e-08
-2.410000e+00 -2.609940e-08
-2.400001e+00 -2.633149e-08
-2.390000e+00 -2.656509e-08
-2.380000e+00 -2.680019e-08
-2.370000e+00 -2.703679e-08
-2.360001e+00 -2.727487e-08
-2.350000e+00 -2.751441e-08
-2.340000e+00 -2.775540e-08
-2.330000e+00 -2.799780e-08
-2.320001e+00 -2.824161e-08
-2.310000e+00 -2.848679e-08
-2.300000e+00 -2.873333e-08
-2.290000e+00 -2.898120e-08
-2.280001e+00 -2.923040e-08
-2.270000e+00 -2.948091e-08
-2.260000e+00 -2.973271e-08
-2.250000e+00 -2.998581e-08
-2.240000e+00 -3.024020e-08
-2.230000e+00 -3.049588e-08
-2.220000e+00 -3.075286e-08
-2.210000e+00 -3.101115e-08
-2.200000e+00 -3.127075e-08
-2.190001e+00 -3.153169e-08
-2.180000e+00 -3.179399e-08
-2.170000e+00 -3.205765e-08
-2.160000e+00 -3.232271e-08
-2.150001e+00 -3.258917e-08
-2.140000e+00 -3.285706e-08
-2.130000e+00 -3.312639e-08
-2.120000e+00 -3.339718e-08
-2.110001e+00 -3.366943e-08
-2.100000e+00 -3.394316e-08
-2.090000e+00 -3.421836e-08
-2.080000e+00 -3.449503e-08
-2.070001e+00 -3.477317e-08
-2.060000e+00 -3.505276e-08
-2.050000e+00 -3.533378e-08
-2.040000e+00 -3.561622e-08
-2.030001e+00 -3.590006e-08
-2.020000e+00 -3.618526e-08
-2.010000e+00 -3.647181e-08
-2.000000e+00 -3.675967e-08
-1.990000e+00 -3.704881e-08
-1.980000e+00 -3.733921e-08
-1.970000e+00 -3.763084e-08
-1.960000e+00 -3.792367e-08
-1.950000e+00 -3.821768e-08
-1.940001e+00 -3.851284e-08
-1.930000e+00 -3.880916e-08
-1.920000e+00 -3.910661e-08
-1.910000e+00 -3.940518e-08
-1.900001e+00 -3.970488e-08
-1.890000e+00 -4.000569e-08
-1.880000e+00 -4.030765e-08
-1.870000e+00 -4.061073e-08
-1.860001e+00 -4.091497e-08
-1.850000e+00 -4.122037e-08
-1.840000e+00 -4.152694e-08
-1.830000e+00 -4.183472e-08
-1.820001e+00 -4.214370e-08
-1.810000e+00 -4.245391e-08
-1.800000e+00 -4.276536e-08
-1.790000e+00 -4.307806e-08
-1.780001e+00 -4.339201e-08
-1.770000e+00 -4.370723e-08
-1.760000e+00 -4.402370e-08
-1.750000e+00 -4.434143e-08
-1.740000e+00 -4.466040e-08
-1.730000e+00 -4.498061e-08
-1.720000e+00 -4.530202e-08
-1.710000e+00 -4.562461e-08
-1.700000e+00 -4.594837e-08
-1.690001e+00 -4.627326e-08
-1.680000e+00 -4.659925e-08
-1.670000e+00 -4.692631e-08
-1.660000e+00 -4.725439e-08
-1.650001e+00 -4.758347e-08
-1.640000e+00 -4.791352e-08
-1.630000e+00 -4.824449e-08
-1.620000e+00 -4.857636e-08
-1.610001e+00 -4.890911e-08
-1.600000e+00 -4.924271e-08
-1.590000e+00 -4.957713e-08
-1.580000e+00 -4.991237e-08
-1.570001e+00 -5.024841e-08
-1.560000e+00 -5.058524e-08
-1.550000e+00 -5.092286e-08
-1.540000e+00 -5.126127e-08
-1.530001e+00 -5.160047e-08
-1.520000e+00 -5.194045e-08
-1.510000e+00 -5.228123e-08
-1.500000e+00 -5.262281e-08
-1.490000e+00 -5.296519e-08
-1.480000e+00 -5.330839e-08
-1.470000e+00 -5.365240e-08
-1.460000e+00 -5.399722e-08
-1.450000e+00 -5.434284e-08
-1.440001e+00 -5.468927e-08
-1.430000e+00 -5.503649e-08
-1.420000e+00 -5.538449e-08
-1.410000e+00 -5.573325e-08
-1.400001e+00 -5.608275e-08
-1.390000e+00 -5.643296e-08
-1.380000e+00 -5.678385e-08
-1.370000e+00 -5.713538e-08
-1.360001e+00 -5.748754e-08
-1.350000e+00 -5.784026e-08
-1.340000e+00 -5.819353e-08
-1.330000e+00 -5.854729e-08
-1.320001e+00 -5.890150e-08
-1.310000e+00 -5.925614e-08
-1.300000e+00 -5.961116e-08
-1.290000e+00 -5.996653e-08
-1.280001e+00 -6.032222e-08
-1.270000e+00 -6.067820e-08
-1.260000e+00 -6.103444e-08
-1.250000e+00 -6.139094e-08
-1.240000e+00 -6.174765e-08