-1.200000e+01 0.000000e+00
-1.199000e+01 0.000000e+00
-1.198000e+01 0.000000e+00
-1.197000e+01 0.000000e+00
-1.196000e+01 0.000000e+00
-1.195000e+01 0.000000e+00
-1.194000e+01 0.000000e+00
-1.193000e+01 -2.977792e-36
-1.192000e+01 -4.611552e-35
-1.191000e+01 -3.820255e-34
-1.190000e+01 -2.247834e-33
-1.189000e+01 -1.052939e-32
-1.188000e+01 -4.174341e-32
-1.187000e+01 -1.454577e-31
-1.186000e+01 -4.569752e-31
-1.185000e+01 -1.318027e-30
-1.184000e+01 -3.537336e-30
-1.183000e+01 -8.925446e-30
-1.182000e+01 -2.134559e-29
-1.181000e+01 -4.870098e-29
-1.180000e+01 -1.065676e-28
-1.179000e+01 -2.246364e-28
-1.178000e+01 -4.578290e-28
-1.177000e+01 -9.050040e-28
-1.176000e+01 -1.739729e-27
-1.175000e+01 -3.259843e-27
-1.174000e+01 -5.965758e-27
-1.173000e+01 -1.068192e-26
-1.172000e+01 -1.874206e-26
-1.171000e+01 -3.226738e-26
-1.170000e+01 -5.457783e-26
-1.169000e+01 -9.079197e-26
-1.168000e+01 -1.486900e-25
-1.167000e+01 -2.399394e-25
-1.166000e+01 -3.818160e-25
-1.165000e+01 -5.995895e-25
-1.164000e+01 -9.297968e-25
-1.163000e+01 -1.424685e-24
-1.162000e+01 -2.158176e-24
-1.161000e+01 -3.233800e-24
-1.160000e+01 -4.795144e-24
-1.159000e+01 -7.039471e-24
-1.158000e+01 -1.023535e-23
-1.157000e+01 -1.474522e-23
-1.156000e+01 -2.105404e-23
-1.155000e+01 -2.980540e-23
-1.154000e+01 -4.184654e-23
-1.153000e+01 -5.828422e-23
-1.152000e+01 -8.055316e-23
-1.151000e+01 -1.104996e-22
-1.150000e+01 -1.504819e-22
-1.149000e+01 -2.034920e-22
-1.148000e+01 -2.732985e-22
-1.147000e+01 -3.646164e-22
-1.146000e+01 -4.833056e-22
-1.145000e+01 -6.365999e-22
-1.144000e+01 -8.333726e-22
-1.143000e+01 -1.084437e-21
-1.142000e+01 -1.402886e-21
-1.141000e+01 -1.804475e-21
-1.140000e+01 -2.308043e-21
-1.139000e+01 -2.935971e-21
-1.138000e+01 -3.714690e-21
-1.137000e+01 -4.675212e-21
-1.136000e+01 -5.853697e-21
-1.135000e+01 -7.292041e-21
-1.134000e+01 -9.038475e-21
-1.133000e+01 -1.114816e-20
-1.132000e+01 -1.368378e-20
-1.131000e+01 -1.671606e-20
-1.130000e+01 -2.032428e-20
-1.129000e+01 -2.459665e-20
-1.128000e+01 -2.963060e-20
-1.127000e+01 -3.553287e-20
-1.126000e+01 -4.241955e-20
-1.125000e+01 -5.041568e-20
-1.124000e+01 -5.965475e-20
-1.123000e+01 -7.027783e-20
-1.122000e+01 -8.243233e-20
-1.121000e+01 -9.627038e-20
-1.120000e+01 -1.119467e-19
-1.119000e+01 -1.296162e-19
-1.118000e+01 -1.494307e-19
-1.117000e+01 -1.715355e-19
-1.116000e+01 -1.960649e-19
-1.115000e+01 -2.231378e-19
-1.114000e+01 -2.528522e-19
-1.113000e+01 -2.852793e-19
-1.112000e+01 -3.204571e-19
-1.111000e+01 -3.583838e-19
-1.110000e+01 -3.990101e-19
-1.109000e+01 -4.422322e-19
-1.108000e+01 -4.878840e-19
-1.107000e+01 -5.357292e-19
-1.106000e+01 -5.854540e-19
-1.105000e+01 -6.366599e-19
-1.104000e+01 -6.888573e-19
-1.103000e+01 -7.414593e-19
-1.102000e+01 -7.937770e-19
-1.101000e+01 -8.450163e-19
-1.100000e+01 -8.942758e-19
-1.099000e+01 -9.405466e-19
-1.098000e+01 -9.827150e-19
-1.097000e+01 -1.019565e-18
-1.096000e+01 -1.049788e-18
-1.095000e+01 -1.071989e-18
-1.094000e+01 -1.084703e-18
-1.093000e+01 -1.086408e-18
-1.092000e+01 -1.075543e-18
-1.091000e+01 -1.050534e-18
-1.090000e+01 -1.009811e-18
-1.089000e+01 -9.518461e-19
-1.088000e+01 -8.751735e-19
-1.087000e+01 -7.784275e-19
-1.086000e+01 -6.603759e-19
-1.085000e+01 -5.199551e-19
-1.084000e+01 -3.563061e-19
-1.083000e+01 -1.688118e-19
-1.082000e+01 4.286759e-20
-1.081000e+01 2.787602e-19
-1.080000e+01 5.385498e-19
-1.079000e+01 8.215469e-19
-1.078000e+01 1.126664e-18
-1.077000e+01 1.452391e-18
-1.076000e+01 1.796789e-18
-1.075000e+01 2.157468e-18
-1.074000e+01 2.531597e-18
-1.073000e+01 2.915900e-18
-1.072000e+01 3.306673e-18
-1.071000e+01 3.699801e-18
-1.070000e+01 4.090784e-18
-1.069000e+01 4.474777e-18
-1.068000e+01 4.846624e-18
-1.067000e+01 5.200910e-18
-1.066000e+01 5.532009e-18
-1.065000e+01 5.834145e-18
-1.064000e+01 6.101447e-18
-1.063000e+01 6.328007e-18
-1.062000e+01 6.507944e-18
-1.061000e+01 6.635460e-18
-1.060000e+01 6.704892e-18
-1.059000e+01 6.710756e-18
-1.058000e+01 6.647796e-18
-1.057000e+01 6.511012e-18
-1.056000e+01 6.295681e-18
-1.055000e+01 5.997376e-18
-1.054000e+01 5.611969e-18
-1.053000e+01 5.135618e-18
-1.052000e+01 4.564759e-18
-1.051000e+01 3.896081e-18
-1.050000e+01 3.126495e-18
-1.049000e+01 2.253111e-18
-1.048000e+01 1.273202e-18
-1.047000e+01 1.841864e-19
-1.046000e+01 -1.016389e-18
-1.045000e+01 -2.330842e-18
-1.044000e+01 -3.761332e-18
-1.043000e+01 -5.309807e-18
-1.042000e+01 -6.977914e-18
-1.041000e+01 -8.766879e-18
-1.040000e+01 -1.067732e-17
-1.039000e+01 -1.270905e-17
-1.038000e+01 -1.486076e-17
-1.037000e+01 -1.712972e-17
-1.036000e+01 -1.951137e-17
-1.035000e+01 -2.199885e-17
-1.034000e+01 -2.458251e-17
-1.033000e+01 -2.724937e-17
-1.032000e+01 -2.998247e-17
-1.031000e+01 -3.276031e-17
-1.030000e+01 -3.555611e-17
-1.029000e+01 -3.833728e-17
-1.028000e+01 -4.106468e-17
-1.027000e+01 -4.369214e-17
-1.026000e+01 -4.616590e-17
-1.025000e+01 -4.842423e-17
-1.024000e+01 -5.039716e-17
-1.023000e+01 -5.200641e-17
-1.022000e+01 -5.316543e-17
-1.021000e+01 -5.377981e-17
-1.020000e+01 -5.374785e-17
-1.019000e+01 -5.296152e-17
-1.018000e+01 -5.130764e-17
-1.017000e+01 -4.866956e-17
-1.016000e+01 -4.492908e-17
-1.015000e+01 -3.996885e-17
-1.014000e+01 -3.367515e-17
-1.013000e+01 -2.594098e-17
-1.012000e+01 -1.666961e-17
-1.011000e+01 -5.778479e-18
-1.010000e+01 6.796712e-18
-1.009000e+01 2.109754e-17
-1.008000e+01 3.713829e-17
-1.007000e+01 5.490126e-17
-1.006000e+01 7.433209e-17
-1.005000e+01 9.533518e-17
-1.004000e+01 1.177694e-16
-1.003000e+01 1.414439e-16
-1.002000e+01 1.661152e-16
-1.001000e+01 1.914838e-16
-1.000000e+01 2.171926e-16
-9.990000e+00 2.428259e-16
-9.980000e+00 2.679094e-16
-9.970000e+00 2.919121e-16
-9.960000e+00 3.142488e-16
-9.950000e+00 3.342850e-16
-9.940001e+00 3.513426e-16
-9.930000e+00 3.647083e-16
-9.920000e+00 3.736434e-16
-9.910000e+00 3.773948e-16
-9.900000e+00 3.752092e-16
-9.890000e+00 3.663476e-16
-9.880000e+00 3.501025e-16
-9.870000e+00 3.258160e-16
-9.860001e+00 2.928997e-16
-9.850000e+00 2.508547e-16
-9.840000e+00 1.992934e-16
-9.830000e+00 1.379608e-16
-9.820000e+00 6.675599e-17
-9.809999e+00 -1.424678e-17
-9.800000e+00 -1.047785e-16
-9.790000e+00 -2.043570e-16
-9.780000e+00 -3.122713e-16
-9.770000e+00 -4.275678e-16
-9.760000e+00 -5.490411e-16
-9.750000e+00 -6.752281e-16
-9.740000e+00 -8.044059e-16
-9.730000e+00 -9.345968e-16
-9.720000e+00 -1.063577e-15
-9.710000e+00 -1.188891e-15
-9.700000e+00 -1.307876e-15
-9.690001e+00 -1.417688e-15
-9.680000e+00 -1.515335e-15
-9.670000e+00 -1.597723e-15
-9.660000e+00 -1.661702e-15
-9.650000e+00 -1.704118e-15
-9.640000e+00 -1.721879e-15
-9.630000e+00 -1.712015e-15
-9.620000e+00 -1.671750e-15
-9.610001e+00 -1.598577e-15
-9.600000e+00 -1.490332e-15
-9.590000e+00 -1.345269e-15
-9.580000e+00 -1.162141e-15
-9.570000e+00 -9.402698e-16
-9.559999e+00 -6.796215e-16
-9.550000e+00 -3.808674e-16
-9.540000e+00 -4.544497e-17
-9.530000e+00 3.243940e-16
-9.520000e+00 7.255449e-16
-9.510000e+00 1.154025e-15
-9.500000e+00 1.604963e-15
-9.490000e+00 2.072603e-15
-9.480000e+00 2.550329e-15
-9.470000e+00 3.030704e-15
-9.460000e+00 3.505535e-15
-9.450000e+00 3.965949e-15
-9.440001e+00 4.402497e-15
-9.430000e+00 4.805280e-15
-9.420000e+00 5.164084e-15
-9.410000e+00 5.468546e-15
-9.400000e+00 5.708330e-15
-9.390000e+00 5.873324e-15
-9.380000e+00 5.953845e-15
-9.370000e+00 5.940851e-15
-9.360001e+00 5.826179e-15
-9.350000e+00 5.602758e-15
-9.340000e+00 5.264846e-15
-9.330000e+00 4.808245e-15
-9.320000e+00 4.230516e-15
-9.309999e+00 3.531175e-15
-9.300000e+00 2.711869e-15
-9.290000e+00 1.776525e-15
-9.280000e+00 7.314745e-16
-9.270000e+00 -4.144600e-16
-9.260000e+00 -1.649922e-15
-9.250000e+00 -2.961014e-15
-9.240000e+00 -4.331342e-15
-9.230000e+00 -5.742116e-15
-9.220000e+00 -7.172284e-15
-9.210000e+00 -8.598746e-15
-9.200000e+00 -9.996600e-15
-9.190001e+00 -1.133945e-14
-9.180000e+00 -1.259978e-14
-9.170000e+00 -1.374936e-14
-9.160000e+00 -1.475966e-14
-9.150000e+00 -1.560244e-14
-9.140000e+00 -1.625017e-14
-9.130000e+00 -1.667668e-14
-9.120000e+00 -1.685767e-14
-9.110001e+00 -1.677133e-14
-9.100000e+00 -1.639891e-14
-9.090000e+00 -1.572529e-14
-9.080000e+00 -1.473953e-14
-9.070000e+00 -1.343536e-14
-9.060000e+00 -1.181166e-14
-9.050000e+00 -9.872848e-15
-9.040000e+00 -7.629213e-15
-9.030000e+00 -5.097138e-15
-9.020000e+00 -2.299265e-15
-9.010000e+00 7.354805e-16
-9.000000e+00 3.971950e-15
-8.990000e+00 7.368970e-15
-8.980000e+00 1.087966e-14
-8.970000e+00 1.445186e-14
-8.960000e+00 1.802873e-14
-8.950000e+00 2.154944e-14
-8.940001e+00 2.494994e-14
-8.930000e+00 2.816398e-14
-8.920000e+00 3.112407e-14
-8.910000e+00 3.376266e-14
-8.900000e+00 3.601332e-14
-8.890000e+00 3.781203e-14
-8.880000e+00 3.909847e-14
-8.870000e+00 3.981737e-14
-8.860001e+00 3.991982e-14
-8.850000e+00 3.936456e-14
-8.840000e+00 3.811925e-14
-8.830000e+00 3.616158e-14
-8.820000e+00 3.348037e-14
-8.810000e+00 3.007643e-14
-8.800000e+00 2.596334e-14
-8.790000e+00 2.116802e-14
-8.780000e+00 1.573107e-14
-8.770000e+00 9.706898e-15
-8.760000e+00 3.163604e-15
-8.750000e+00 -3.817393e-15
-8.740000e+00 -1.114200e-14
-8.730000e+00 -1.870436e-14
-8.720000e+00 -2.638806e-14
-8.710000e+00 -3.406756e-14
-8.700000e+00 -4.160991e-14
-8.690001e+00 -4.887672e-14
-8.680000e+00 -5.572631e-14
-8.670000e+00 -6.201607e-14
-8.660000e+00 -6.760497e-14
-8.650000e+00 -7.235622e-14
-8.640000e+00 -7.613998e-14
-8.630000e+00 -7.883611e-14
-8.620000e+00 -8.033692e-14
-8.610001e+00 -8.054978e-14
-8.600000e+00 -7.939980e-14
-8.590000e+00 -7.683205e-14
-8.580000e+00 -7.281380e-14
-8.570000e+00 -6.733637e-14
-8.560000e+00 -6.041662e-14
-8.550000e+00 -5.209813e-14
-8.540000e+00 -4.245192e-14
-8.530000e+00 -3.157669e-14
-8.520000e+00 -1.959859e-14
-8.510000e+00 -6.670481e-15
-8.500000e+00 7.029363e-15
-8.490000e+00 2.129907e-14
-8.480000e+00 3.591553e-14
-8.470000e+00 5.063729e-14
-8.460000e+00 6.520790e-14
-8.450000e+00 7.935979e-14
-8.440001e+00 9.281849e-14
-8.430000e+00 1.053072e-13
-8.420000e+00 1.165520e-13
-8.410000e+00 1.262864e-13
-8.400000e+00 1.342571e-13
-8.390000e+00 1.402293e-13
-8.380000e+00 1.439917e-13
-8.370000e+00 1.453615e-13
-8.360001e+00 1.441899e-13
-8.350000e+00 1.403659e-13
-8.340000e+00 1.338209e-13
-8.330000e+00 1.245317e-13
-8.320000e+00 1.125238e-13
-8.310000e+00 9.787304e-14
-8.300000e+00 8.070745e-14
-8.290000e+00 6.120718e-14
-8.280000e+00 3.960420e-14
-8.270000e+00 1.618075e-14
-8.260000e+00 -8.733138e-15
-8.250000e+00 -3.476316e-14
-8.240000e+00 -6.149520e-14
-8.230000e+00 -8.848082e-14
-8.220000e+00 -1.152435e-13
-8.210000e+00 -1.412860e-13
-8.200000e+00 -1.660981e-13
-8.190001e+00 -1.891653e-13
-8.180000e+00 -2.099778e-13
-8.170000e+00 -2.280401e-13
-8.160000e+00 -2.428804e-13
-8.150000e+00 -2.540606e-13
-8.140000e+00 -2.611858e-13
-8.130000e+00 -2.639135e-13
-8.120000e+00 -2.619626e-13
-8.110001e+00 -2.551211e-13
-8.100000e+00 -2.432539e-13
-8.090000e+00 -2.263087e-13
-8.080000e+00 -2.043212e-13
-8.070000e+00 -1.774188e-13
-8.060000e+00 -1.458225e-13
-8.050000e+00 -1.098483e-13
-8.040000e+00 -6.990530e-14
-8.030000e+00 -2.649377e-14
-8.020000e+00 1.979985e-14
-8.010000e+00 6.830904e-14
-8.000000e+00 1.182951e-13
-7.990000e+00 1.689568e-13
-7.980000e+00 2.194417e-13
-7.970000e+00 2.688586e-13
-7.960000e+00 3.162914e-13
-7.950000e+00 3.608139e-13
-7.940000e+00 4.015061e-13
-7.930000e+00 4.374700e-13
-7.920000e+00 4.678467e-13
-7.910000e+00 4.918329e-13
-7.900000e+00 5.086973e-13
-7.890000e+00 5.177972e-13
-7.880000e+00 5.185926e-13
-7.870000e+00 5.106612e-13
-7.860000e+00 4.937097e-13
-7.850000e+00 4.675853e-13
-7.840000e+00 4.322837e-13
-7.830000e+00 3.879563e-13
-7.820000e+00 3.349133e-13
-7.810000e+00 2.736253e-13
-7.800000e+00 2.047221e-13
-7.790000e+00 1.289881e-13
-7.780000e+00 4.735508e-14
-7.770000e+00 -3.910760e-14
-7.760000e+00 -1.292060e-13
-7.750000e+00 -2.216368e-13
-7.740000e+00 -3.150057e-13
-7.730000e+00 -4.078472e-13
-7.720000e+00 -4.986472e-13
-7.710000e+00 -5.858664e-13
-7.700000e+00 -6.679660e-13
-7.690000e+00 -7.434329e-13
-7.680000e+00 -8.108073e-13
-7.670000e+00 -8.687082e-13
-7.660000e+00 -9.158598e-13
-7.650000e+00 -9.511168e-13
-7.640000e+00 -9.734877e-13
-7.630000e+00 -9.821564e-13
-7.620000e+00 -9.765016e-13
-7.610000e+00 -9.561142e-13
-7.600000e+00 -9.208094e-13
-7.590000e+00 -8.706377e-13
-7.580000e+00 -8.058901e-13
-7.570000e+00 -7.271012e-13
-7.560000e+00 -6.350462e-13
-7.550000e+00 -5.307352e-13
-7.540000e+00 -4.154020e-13
-7.530000e+00 -2.904899e-13
-7.520000e+00 -1.576320e-13
-7.510000e+00 -1.862897e-14
-7.500000e+00 1.245777e-13
-7.490000e+00 2.699347e-13
-7.480000e+00 4.153100e-13
-7.470000e+00 5.585263e-13
-7.460000e+00 6.973979e-13
-7.450000e+00 8.297677e-13
-7.440000e+00 9.535439e-13
-7.430000e+00 1.066739e-12
-7.420000e+00 1.167504e-12
-7.410000e+00 1.254163e-12
-7.400000e+00 1.325249e-12
-7.390000e+00 1.379528e-12
-7.380000e+00 1.416025e-12
-7.370000e+00 1.434051e-12
-7.360000e+00 1.433211e-12
-7.350000e+00 1.413422e-12
-7.340000e+00 1.374915e-12
-7.330000e+00 1.318239e-12
-7.320000e+00 1.244249e-12
-7.310000e+00 1.154101e-12
-7.300000e+00 1.049228e-12
-7.290000e+00 9.313239e-13
-7.280000e+00 8.023078e-13
-7.270000e+00 6.642951e-13
-7.260000e+00 5.195578e-13
-7.250000e+00 3.704827e-13
-7.240000e+00 2.195276e-13
-7.230000e+00 6.917274e-14
-7.220000e+00 -7.812624e-14
-7.210000e+00 -2.199882e-13
-7.200000e+00 -3.541546e-13
-7.190000e+00 -4.785366e-13
-7.180000e+00 -5.912595e-13
-7.170000e+00 -6.907044e-13
-7.160000e+00 -7.755447e-13
-7.150000e+00 -8.447782e-13
-7.140000e+00 -8.977529e-13
-7.130000e+00 -9.341859e-13
-7.120000e+00 -9.541762e-13
-7.110000e+00 -9.582079e-13
-7.100000e+00 -9.471479e-13
-7.090000e+00 -9.222327e-13
-7.080000e+00 -8.850500e-13
-7.070000e+00 -8.375089e-13
-7.060000e+00 -7.818057e-13
-7.050000e+00 -7.203799e-13
-7.040000e+00 -6.558651e-13
-7.030000e+00 -5.910332e-13
-7.020000e+00 -5.287340e-13
-7.010000e+00 -4.718311e-13
-7.000000e+00 -4.231344e-13
-6.990000e+00 -3.853321e-13
-6.980000e+00 -3.609217e-13
-6.970000e+00 -3.521427e-13
-6.960000e+00 -3.609116e-13
-6.950000e+00 -3.887612e-13
-6.940000e+00 -4.367852e-13
-6.930000e+00 -5.055895e-13
-6.920000e+00 -5.952513e-13
-6.910000e+00 -7.052868e-13
-6.900000e+00 -8.346303e-13
-6.890000e+00 -9.816223e-13
-6.880000e+00 -1.144011e-12
-6.870000e+00 -1.318963e-12
-6.860000e+00 -1.503090e-12
-6.850000e+00 -1.692483e-12
-6.840000e+00 -1.882764e-12
-6.830000e+00 -2.069144e-12
-6.820000e+00 -2.246494e-12
-6.810000e+00 -2.409428e-12
-6.800000e+00 -2.552391e-12
-6.790000e+00 -2.669757e-12
-6.780000e+00 -2.755933e-12
-6.770000e+00 -2.805468e-12
-6.760000e+00 -2.813161e-12
-6.750000e+00 -2.774174e-12
-6.740000e+00 -2.684144e-12
-6.730000e+00 -2.539286e-12
-6.720000e+00 -2.336498e-12
-6.710000e+00 -2.073454e-12
-6.700000e+00 -1.748692e-12
-6.690000e+00 -1.361686e-12
-6.680000e+00 -9.129094e-13
-6.670000e+00 -4.038846e-13
-6.660000e+00 1.627857e-13
-6.650000e+00 7.834014e-13
-6.640000e+00 1.453165e-12
-6.630000e+00 2.166201e-12
-6.620000e+00 2.915590e-12
-6.610000e+00 3.693423e-12
-6.600000e+00 4.490875e-12
-6.590000e+00 5.298290e-12
-6.580000e+00 6.105290e-12
-6.570000e+00 6.900888e-12
-6.560000e+00 7.673625e-12
-6.550000e+00 8.411711e-12
-6.540000e+00 9.103181e-12
-6.530000e+00 9.736051e-12
-6.520000e+00 1.029849e-11
-6.510000e+00 1.077898e-11
-6.500000e+00 1.116651e-11
-6.490000e+00 1.145068e-11
-6.480000e+00 1.162196e-11
-6.470000e+00 1.167176e-11
-6.460000e+00 1.159260e-11
-6.450000e+00 1.137828e-11
-6.440000e+00 1.102394e-11
-6.430000e+00 1.052623e-11
-6.420000e+00 9.883348e-12
-6.410000e+00 9.095116e-12
-6.400000e+00 8.163056e-12
-6.390000e+00 7.090407e-12
-6.380000e+00 5.882126e-12
-6.370000e+00 4.544887e-12
-6.360000e+00 3.087049e-12
-6.350000e+00 1.518602e-12
-6.340000e+00 -1.489042e-13
-6.330000e+00 -1.902446e-12
-6.320000e+00 -3.727635e-12
-6.310000e+00 -5.608837e-12
-6.300000e+00 -7.529310e-12
-6.290000e+00 -9.471353e-12
-6.280000e+00 -1.141646e-11
-6.270000e+00 -1.334550e-11
-6.260000e+00 -1.523885e-11
-6.250000e+00 -1.707665e-11
-6.240000e+00 -1.883889e-11
-6.230000e+00 -2.050566e-11
-6.220000e+00 -2.205733e-11
-6.210000e+00 -2.347466e-11
-6.200000e+00 -2.473907e-11
-6.190000e+00 -2.583272e-11
-6.180000e+00 -2.673875e-11
-6.170000e+00 -2.744139e-11
-6.160000e+00 -2.792614e-11
-6.150000e+00 -2.817985e-11
-6.140000e+00 -2.819095e-11
-6.130000e+00 -2.794949e-11
-6.120000e+00 -2.744731e-11
-6.110000e+00 -2.667811e-11
-6.100000e+00 -2.563759e-11
-6.090000e+00 -2.432348e-11
-6.080000e+00 -2.273570e-11
-6.070000e+00 -2.087635e-11
-6.060000e+00 -1.874985e-11
-6.050000e+00 -1.636295e-11
-6.040000e+00 -1.372477e-11
-6.030000e+00 -1.084687e-11
-6.020000e+00 -7.743267e-12
-6.010000e+00 -4.430417e-12
-6.000000e+00 -9.272478e-13
-5.990000e+00 2.744869e-12
-5.980000e+00 6.562148e-12
-5.970000e+00 1.049844e-11
-5.960000e+00 1.452530e-11
-5.950000e+00 1.861208e-11
-5.940000e+00 2.272604e-11
-5.930000e+00 2.683251e-11
-5.920000e+00 3.089503e-11
-5.910000e+00 3.487558e-11
-5.900000e+00 3.873480e-11
-5.890000e+00 4.243225e-11
-5.880000e+00 4.592671e-11
-5.870000e+00 4.917653e-11
-5.860000e+00 5.214002e-11
-5.850000e+00 5.477576e-11
-5.840000e+00 5.704315e-11
-5.830000e+00 5.890276e-11
-5.820000e+00 6.031691e-11
-5.810000e+00 6.125013e-11
-5.800000e+00 6.166970e-11
-5.790000e+00 6.154616e-11
-5.780000e+00 6.085390e-11
-5.770000e+00 5.957167e-11
-5.760000e+00 5.768308e-11
-5.750000e+00 5.517719e-11
-5.740000e+00 5.204888e-11
-5.730000e+00 4.829936e-11
-5.720000e+00 4.393655e-11
-5.710000e+00 3.897541e-11
-5.700000e+00 3.343818e-11
-5.690000e+00 2.735458e-11
-5.680000e+00 2.076192e-11
-5.670000e+00 1.370508e-11
-5.660000e+00 6.236403e-12
-5.650000e+00 -1.584475e-12
-5.640000e+00 -9.690998e-12
-5.630000e+00 -1.801011e-11
-5.620000e+00 -2.646281e-11
-5.610000e+00 -3.496487e-11
-5.600000e+00 -4.342758e-11
-5.590000e+00 -5.175870e-11
-5.580000e+00 -5.986345e-11
-5.570000e+00 -6.764563e-11
-5.560000e+00 -7.500886e-11
-5.550000e+00 -8.185774e-11
-5.540000e+00 -8.809926e-11
-5.530000e+00 -9.364418e-11
-5.520000e+00 -9.840835e-11
-5.510000e+00 -1.023141e-10
-5.500000e+00 -1.052918e-10
-5.490000e+00 -1.072806e-10
-5.480000e+00 -1.082305e-10
-5.470000e+00 -1.081028e-10
-5.460000e+00 -1.068715e-10
-5.450000e+00 -1.045241e-10
-5.440000e+00 -1.010622e-10
-5.430000e+00 -9.650240e-11
-5.420000e+00 -9.087616e-11
-5.410000e+00 -8.423027e-11
-5.400000e+00 -7.662664e-11
-5.390000e+00 -6.814195e-11
-5.380000e+00 -5.886701e-11
-5.370000e+00 -4.890595e-11
-5.360000e+00 -3.837513e-11
-5.350000e+00 -2.740172e-11
-5.340000e+00 -1.612219e-11
-5.330000e+00 -4.680458e-12
-5.320000e+00 6.774105e-12
-5.310000e+00 1.808885e-11
-5.300000e+00 2.911021e-11
-5.290000e+00 3.968610e-11
-5.280000e+00 4.966850e-11
-5.270000e+00 5.891599e-11
-5.260000e+00 6.729632e-11
-5.250000e+00 7.468901e-11
-5.240000e+00 8.098765e-11
-5.230000e+00 8.610233e-11
-5.220000e+00 8.996168e-11
-5.210000e+00 9.251480e-11
-5.200000e+00 9.373290e-11
-5.190000e+00 9.361049e-11
-5.180000e+00 9.216651e-11
-5.170000e+00 8.944475e-11
-5.160000e+00 8.551410e-11
-5.150000e+00 8.046821e-11
-5.140000e+00 7.442483e-11
-5.130000e+00 6.752456e-11
-5.120000e+00 5.992921e-11
-5.110000e+00 5.181965e-11
-5.100000e+00 4.339334e-11
-5.090000e+00 3.486126e-11
-5.080000e+00 2.644458e-11
-5.070000e+00 1.837092e-11
-5.060000e+00 1.087033e-11
-5.050000e+00 4.171011e-12
-5.040000e+00 -1.505138e-12
-5.030000e+00 -5.947123e-12
-5.020000e+00 -8.959471e-12
-5.010000e+00 -1.036682e-11
-5.000000e+00 -1.001843e-11
-4.990000e+00 -7.792412e-12
-4.980000e+00 -3.599794e-12
-4.970000e+00 2.611886e-12
-4.960000e+00 1.085537e-11
-4.950000e+00 2.110102e-11
-4.940000e+00 3.327475e-11
-4.930000e+00 4.725662e-11
-4.920000e+00 6.288015e-11
-4.910000e+00 7.993238e-11
-4.900000e+00 9.815485e-11
-4.890000e+00 1.172453e-10
-4.880000e+00 1.368601e-10
-4.870000e+00 1.566180e-10
-4.860000e+00 1.761042e-10
-4.850000e+00 1.948754e-10
-4.840000e+00 2.124658e-10
-4.830000e+00 2.283936e-10
-4.820000e+00 2.421683e-10
-4.810000e+00 2.532984e-10
-4.800000e+00 2.612995e-10
-4.790000e+00 2.657032e-10
-4.780000e+00 2.660656e-10
-4.770000e+00 2.619765e-10
-4.760000e+00 2.530680e-10
-4.750000e+00 2.390232e-10
-4.740000e+00 2.195850e-10
-4.730000e+00 1.945635e-10
-4.720000e+00 1.638434e-10
-4.710000e+00 1.273906e-10
-4.700000e+00 8.525768e-11
-4.690000e+00 3.758852e-11
-4.680000e+00 -1.537824e-11
-4.670000e+00 -7.330718e-11
-4.660000e+00 -1.357652e-10
-4.650000e+00 -2.022223e-10
-4.640000e+00 -2.720534e-10
-4.630000e+00 -3.445424e-10
-4.620000e+00 -4.188870e-10
-4.610000e+00 -4.942057e-10
-4.600000e+00 -5.695459e-10
-4.590000e+00 -6.438931e-10
-4.580000e+00 -7.161828e-10
-4.570000e+00 -7.853119e-10
-4.560000e+00 -8.501528e-10
-4.550000e+00 -9.095672e-10
-4.540000e+00 -9.624217e-10
-4.530000e+00 -1.007603e-09
-4.520000e+00 -1.044036e-09
-4.510000e+00 -1.070697e-09
-4.500000e+00 -1.086634e-09
-4.490000e+00 -1.090980e-09
-4.480000e+00 -1.082970e-09
-4.470000e+00 -1.061956e-09
-4.460000e+00 -1.027420e-09
-4.450000e+00 -9.789902e-10
-4.440000e+00 -9.164480e-10
-4.430000e+00 -8.397406e-10
-4.420000e+00 -7.489886e-10
-4.410000e+00 -6.444920e-10
-4.400000e+00 -5.267334e-10
-4.390000e+00 -3.963811e-10
-4.380000e+00 -2.542870e-10
-4.370000e+00 -1.014843e-10
-4.360000e+00 6.081846e-11
-4.350000e+00 2.312454e-10
-4.340000e+00 4.082637e-10
-4.330000e+00 5.901966e-10
-4.320000e+00 7.752382e-10
-4.310000e+00 9.614716e-10
-4.300000e+00 1.146887e-09
-4.290000e+00 1.329403e-09
-4.280000e+00 1.506890e-09
-4.270000e+00 1.677194e-09
-4.260000e+00 1.838160e-09
-4.250000e+00 1.987658e-09
-4.240000e+00 2.123611e-09
-4.230000e+00 2.244018e-09
-4.220000e+00 2.346982e-09
-4.210000e+00 2.430734e-09
-4.200000e+00 2.493657e-09
-4.190000e+00 2.534313e-09
-4.180000e+00 2.551456e-09
-4.170000e+00 2.544061e-09
-4.160000e+00 2.511336e-09
-4.150000e+00 2.452735e-09
-4.140000e+00 2.367976e-09
-4.130000e+00 2.257048e-09
-4.120000e+00 2.120214e-09
-4.110000e+00 1.958019e-09
-4.100000e+00 1.771287e-09
-4.090000e+00 1.561118e-09
-4.080000e+00 1.328882e-09
-4.070000e+00 1.076208e-09
-4.060000e+00 8.049703e-10
-4.050000e+00 5.172728e-10
-4.040000e+00 2.154291e-10
-4.030000e+00 -9.806003e-11
-4.020000e+00 -4.205311e-10
-4.010000e+00 -7.491854e-10
-4.000000e+00 -1.081118e-09
-3.990000e+00 -1.413349e-09
-3.980000e+00 -1.742855e-09
-3.970000e+00 -2.066602e-09
-3.960000e+00 -2.381582e-09
-3.950000e+00 -2.684841e-09
-3.940001e+00 -2.973519e-09
-3.930000e+00 -3.244879e-09
-3.920000e+00 -3.496342e-09
-3.910000e+00 -3.725514e-09
-3.900001e+00 -3.930219e-09
-3.890000e+00 -4.108523e-09
-3.880000e+00 -4.258761e-09
-3.870000e+00 -4.379556e-09
-3.860001e+00 -4.469840e-09
-3.850000e+00 -4.528870e-09
-3.840000e+00 -4.556239e-09
-3.830000e+00 -4.551886e-09
-3.820001e+00 -4.516098e-09
-3.810000e+00 -4.449517e-09
-3.800000e+00 -4.353134e-09
-3.790000e+00 -4.228283e-09
-3.780000e+00 -4.076632e-09
-3.770000e+00 -3.900171e-09
-3.760000e+00 -3.701192e-09
-3.750000e+00 -3.482274e-09
-3.740000e+00 -3.246252e-09
-3.730000e+00 -2.996202e-09
-3.720000e+00 -2.735403e-09
-3.710000e+00 -2.467309e-09
-3.700000e+00 -2.195519e-09
-3.690001e+00 -1.923739e-09
-3.680000e+00 -1.655747e-09
-3.670000e+00 -1.395360e-09
-3.660000e+00 -1.146390e-09
-3.650001e+00 -9.126133e-10
-3.640000e+00 -6.977285e-10
-3.630000e+00 -5.053219e-10
-3.620000e+00 -3.388314e-10
-3.610001e+00 -2.015113e-10
-3.600000e+00 -9.639990e-11
-3.590000e+00 -2.628760e-11
-3.580000e+00 6.311728e-12
-3.570001e+00 -8.124904e-13
-3.560000e+00 -4.954364e-11
-3.550000e+00 -1.414169e-10
-3.540000e+00 -2.776014e-10
-3.530000e+00 -4.588856e-10
-3.520000e+00 -6.856659e-10
-3.510000e+00 -9.579392e-10
-3.500000e+00 -1.275299e-09
-3.490000e+00 -1.636935e-09
-3.480000e+00 -2.041636e-09
-3.470000e+00 -2.487797e-09
-3.460000e+00 -2.973431e-09
-3.450000e+00 -3.496181e-09
-3.440001e+00 -4.053342e-09
-3.430000e+00 -4.641876e-09
-3.420000e+00 -5.258439e-09
-3.410000e+00 -5.899413e-09
-3.400001e+00 -6.560930e-09
-3.390000e+00 -7.238905e-09
-3.380000e+00 -7.929075e-09
-3.370000e+00 -8.627035e-09
-3.360001e+00 -9.328275e-09
-3.350000e+00 -1.002822e-08
-3.340000e+00 -1.072228e-08
-3.330000e+00 -1.140588e-08
-3.320001e+00 -1.207452e-08
-3.310000e+00 -1.272378e-08
-3.300000e+00 -1.334942e-08
-3.290000e+00 -1.394739e-08
-3.280000e+00 -1.451385e-08
-3.270000e+00 -1.504526e-08
-3.260000e+00 -1.553837e-08
-3.250000e+00 -1.599028e-08
-3.240000e+00 -1.639850e-08
-3.230000e+00 -1.676089e-08
-3.220000e+00 -1.707582e-08
-3.210000e+00 -1.734205e-08
-3.200000e+00 -1.755887e-08
-3.190001e+00 -1.772603e-08
-3.180000e+00 -1.784380e-08
-3.170000e+00 -1.791297e-08
-3.160000e+00 -1.793482e-08
-3.150001e+00 -1.791114e-08
-3.140000e+00 -1.784423e-08
-3.130000e+00 -1.773686e-08
-3.120000e+00 -1.759227e-08
-3.110001e+00 -1.741414e-08
-3.100000e+00 -1.720656e-08
-3.090000e+00 -1.697398e-08
-3.080000e+00 -1.672120e-08
-3.070001e+00 -1.645332e-08
-3.060000e+00 -1.617566e-08
-3.050000e+00 -1.589376e-08
-3.040000e+00 -1.561328e-08
-3.030000e+00 -1.533999e-08
-3.020000e+00 -1.507966e-08
-3.010000e+00 -1.483805e-08
-3.000000e+00 -1.462082e-08
-2.990000e+00 -1.443347e-08
-2.980000e+00 -1.428129e-08
-2.970000e+00 -1.416933e-08
-2.960000e+00 -1.410226e-08
-2.950000e+00 -1.408442e-08
-2.940001e+00 -1.411969e-08
-2.930000e+00 -1.421149e-08
-2.920000e+00 -1.436271e-08
-2.910000e+00 -1.457570e-08
-2.900001e+00 -1.485223e-08
-2.890000e+00 -1.519345e-08
-2.880000e+00 -1.559991e-08
-2.870000e+00 -1.607150e-08
-2.860001e+00 -1.660749e-08
-2.850000e+00 -1.720653e-08
-2.840000e+00 -1.786663e-08
-2.830000e+00 -1.858524e-08
-2.820001e+00 -1.935922e-08
-2.810000e+00 -2.018489e-08
-2.800000e+00 -2.105811e-08
-2.790000e+00 -2.197427e-08
-2.780000e+00 -2.292838e-08
-2.770000e+00 -2.391515e-08
-2.760000e+00 -2.492900e-08
-2.750000e+00 -2.596416e-08
-2.740000e+00 -2.701477e-08
-2.730000e+00 -2.807489e-08
-2.720000e+00 -2.913862e-08
-2.710000e+00 -3.020018e-08
-2.700000e+00 -3.125394e-08
-2.690001e+00 -3.229457e-08
-2.680000e+00 -3.331701e-08
-2.670000e+00 -3.431661e-08
-2.660000e+00 -3.528919e-08
-2.650001e+00 -3.623103e-08
-2.640000e+00 -3.713902e-08
-2.630000e+00 -3.801059e-08
-2.620000e+00 -3.884386e-08
-2.610001e+00 -3.963757e-08
-2.600000e+00 -4.039114e-08
-2.590000e+00 -4.110467e-08
-2.580000e+00 -4.177897e-08
-2.570001e+00 -4.241549e-08
-2.560000e+00 -4.301633e-08
-2.550000e+00 -4.358422e-08
-2.540000e+00 -4.412248e-08
-2.530001e+00 -4.463496e-08
-2.520000e+00 -4.512600e-08
-2.510000e+00 -4.560035e-08
-2.500000e+00 -4.606313e-08
-2.490000e+00 -4.651974e-08
-2.480000e+00 -4.697580e-08
-2.470000e+00 -4.743704e-08
-2.460000e+00 -4.790928e-08
-2.450000e+00 -4.839827e-08
-2.440001e+00 -4.890968e-08
-2.430000e+00 -4.944901e-08
-2.420000e+00 -5.002146e-08
-2.410000e+00 -5.063194e-08
-2.400001e+00 -5.128493e-08
-2.390000e+00 -5.198450e-08
-2.380000e+00 -5.273418e-08
-2.370000e+00 -5.353697e-08
-2.360001e+00 -5.439529e-08
-2.350000e+00 -5.531096e-08
-2.340000e+00 -5.628516e-08
-2.330000e+00 -5.731846e-08
-2.320001e+00 -5.841081e-08
-2.310000e+00 -5.956154e-08
-2.300000e+00 -6.076939e-08
-2.290000e+00 -6.203260e-08
-2.280001e+00 -6.334884e-08
-2.270000e+00 -6.471536e-08
-2.260000e+00 -6.612899e-08
-2.250000e+00 -6.758624e-08
-2.240000e+00 -6.908334e-08
-2.230000e+00 -7.061634e-08
-2.220000e+00 -7.218117e-08
-2.210000e+00 -7.377371e-08
-2.200000e+00 -7.538986e-08
-2.190001e+00 -7.702565e-08
-2.180000e+00 -7.867729e-08
-2.170000e+00 -8.034124e-08
-2.160000e+00 -8.201429e-08
-2.150001e+00 -8.369359e-08
-2.140000e+00 -8.537674e-08
-2.130000e+00 -8.706179e-08
-2.120000e+00 -8.874732e-08
-2.110001e+00 -9.043242e-08
-2.100000e+00 -9.211675e-08
-2.090000e+00 -9.380051e-08
-2.080000e+00 -9.548449e-08
-2.070001e+00 -9.716996e-08
-2.060000e+00 -9.885875e-08
-2.050000e+00 -1.005531e-07
-2.040000e+00 -1.022559e-07
-2.030001e+00 -1.039702e-07
-2.020000e+00 -1.056994e-07
-2.010000e+00 -1.074474e-07
-2.000000e+00 -1.092179e-07
-1.990000e+00 -1.110153e-07
-1.980000e+00 -1.128435e-07
-1.970000e+00 -1.147067e-07
-1.960000e+00 -1.166091e-07
-1.950000e+00 -1.185544e-07
-1.940001e+00 -1.205463e-07
-1.930000e+00 -1.225884e-07
-1.920000e+00 -1.246836e-07
-1.910000e+00 -1.268345e-07
-1.900001e+00 -1.290434e-07
-1.890000e+00 -1.313122e-07
-1.880000e+00 -1.336420e-07
-1.870000e+00 -1.360336e-07
-1.860001e+00 -1.384873e-07
-1.850000e+00 -1.410028e-07
-1.840000e+00 -1.435795e-07
-1.830000e+00 -1.462161e-07
-1.820001e+00 -1.489110e-07
-1.810000e+00 -1.516623e-07
-1.800000e+00 -1.544678e-07
-1.790000e+00 -1.573247e-07
-1.780001e+00 -1.602305e-07
-1.770000e+00 -1.631822e-07
-1.760000e+00 -1.661770e-07
-1.750000e+00 -1.692121e-07
-1.740000e+00 -1.722846e-07
-1.730000e+00 -1.753921e-07
-1.720000e+00 -1.785322e-07
-1.710000e+00 -1.817031e-07
-1.700000e+00 -1.849032e-07
-1.690001e+00 -1.881314e-07
-1.680000e+00 -1.913871e-07
-1.670000e+00 -1.946704e-07
-1.660000e+00 -1.979818e-07
-1.650001e+00 -2.013225e-07
-1.640000e+00 -2.046941e-07
-1.630000e+00 -2.080992e-07
-1.620000e+00 -2.115407e-07
-1.610001e+00 -2.150219e-07
-1.600000e+00 -2.185471e-07
-1.590000e+00 -2.221206e-07
-1.580000e+00 -2.257472e-07
-1.570001e+00 -2.294324e-07
-1.560000e+00 -2.331814e-07
-1.550000e+00 -2.369999e-07
-1.540000e+00 -2.408935e-07
-1.530001e+00 -2.448681e-07
-1.520000e+00 -2.489292e-07
-1.510000e+00 -2.530820e-07
-1.500000e+00 -2.573316e-07
-1.490000e+00 -2.616827e-07
-1.480000e+00 -2.661394e-07
-1.470000e+00 -2.707053e-07
-1.460000e+00 -2.753834e-07
-1.450000e+00 -2.801759e-07
-1.440001e+00 -2.850845e-07
-1.430000e+00 -2.901098e-07
-1.420000e+00 -2.952519e-07
-1.410000e+00 -3.005099e-07
-1.400001e+00 -3.058822e-07
-1.390000e+00 -3.113665e-07
-1.380000e+00 -3.169595e-07
-1.370000e+00 -3.226576e-07
-1.360001e+00 -3.284563e-07
-1.350000e+00 -3.343507e-07
-1.340000e+00 -3.403354e-07
-1.330000e+00 -3.464047e-07
-1.320001e+00 -3.525527e-07
-1.310000e+00 -3.587732e-07
-1.300000e+00 -3.650602e-07
-1.290000e+00 -3.714078e-07
-1.280001e+00 -3.778101e-07
-1.270000e+00 -3.842620e-07
-1.260000e+00 -3.907585e-07
-1.250000e+00 -3.972954e-07
-1.240000e+00 -4.038692e-07
-1.230000e+00 -4.104770e-07
-1.220000e+00 -4.171172e-07
-1.210000e+00 -4.237886e-07
-1.200000e+00 -4.304915e-07
-1.190001e+00 -4.372270e-07
-1.180000e+00 -4.439971e-07
-1.170000e+00 -4.508053e-07