-1.200000e+01 0.000000e+00
-1.199000e+01 0.000000e+00
-1.198000e+01 0.000000e+00
-1.197000e+01 0.000000e+00
-1.196000e+01 0.000000e+00
-1.195000e+01 0.000000e+00
-1.194000e+01 0.000000e+00
-1.193000e+01 -1.488849e-36
-1.192000e+01 -2.422474e-35
-1.191000e+01 -2.108823e-34
-1.190000e+01 -1.302974e-33
-1.189000e+01 -6.400063e-33
-1.188000e+01 -2.655473e-32
-1.187000e+01 -9.662119e-32
-1.186000e+01 -3.161704e-31
-1.185000e+01 -9.473336e-31
-1.184000e+01 -2.634170e-30
-1.183000e+01 -6.868033e-30
-1.182000e+01 -1.692850e-29
-1.181000e+01 -3.970722e-29
-1.180000e+01 -8.911303e-29
-1.179000e+01 -1.922201e-28
-1.178000e+01 -4.000379e-28
-1.177000e+01 -8.058686e-28
-1.176000e+01 -1.575822e-27
-1.175000e+01 -2.998396e-27
-1.174000e+01 -5.563337e-27
-1.173000e+01 -1.008466e-26
-1.172000e+01 -1.788907e-26
-1.171000e+01 -3.109973e-26
-1.170000e+01 -5.305682e-26
-1.169000e+01 -8.893172e-26
-1.168000e+01 -1.466110e-25
-1.167000e+01 -2.379526e-25
-1.166000e+01 -3.805477e-25
-1.165000e+01 -6.001622e-25
-1.164000e+01 -9.340821e-25
-1.163000e+01 -1.435647e-24
-1.162000e+01 -2.180329e-24
-1.161000e+01 -3.273795e-24
-1.160000e+01 -4.862515e-24
-1.159000e+01 -7.147559e-24
-1.158000e+01 -1.040241e-23
-1.157000e+01 -1.499571e-23
-1.156000e+01 -2.142012e-23
-1.155000e+01 -3.032857e-23
-1.154000e+01 -4.257942e-23
-1.153000e+01 -5.929231e-23
-1.152000e+01 -8.191655e-23
-1.151000e+01 -1.123145e-22
-1.150000e+01 -1.528618e-22
-1.149000e+01 -2.065678e-22
-1.148000e+01 -2.772184e-22
-1.147000e+01 -3.695442e-22
-1.146000e+01 -4.894170e-22
-1.145000e+01 -6.440782e-22
-1.144000e+01 -8.424010e-22
-1.143000e+01 -1.095189e-21
-1.142000e+01 -1.415515e-21
-1.141000e+01 -1.819098e-21
-1.140000e+01 -2.324726e-21
-1.139000e+01 -2.954712e-21
-1.138000e+01 -3.735401e-21
-1.137000e+01 -4.697702e-21
-1.136000e+01 -5.877666e-21
-1.135000e+01 -7.317070e-21
-1.134000e+01 -9.064037e-21
-1.133000e+01 -1.117364e-20
-1.132000e+01 -1.370853e-20
-1.131000e+01 -1.673947e-20
-1.130000e+01 -2.034588e-20
-1.129000e+01 -2.461628e-20
-1.128000e+01 -2.964863e-20
-1.127000e+01 -3.555048e-20
-1.126000e+01 -4.243908e-20
-1.125000e+01 -5.044107e-20
-1.124000e+01 -5.969210e-20
-1.123000e+01 -7.033601e-20
-1.122000e+01 -8.252376e-20
-1.121000e+01 -9.641183e-20
-1.120000e+01 -1.121603e-19
-1.119000e+01 -1.299304e-19
-1.118000e+01 -1.498815e-19
-1.117000e+01 -1.721672e-19
-1.116000e+01 -1.969318e-19
-1.115000e+01 -2.243049e-19
-1.114000e+01 -2.543961e-19
-1.113000e+01 -2.872891e-19
-1.112000e+01 -3.230347e-19
-1.111000e+01 -3.616440e-19
-1.110000e+01 -4.030800e-19
-1.109000e+01 -4.472498e-19
-1.108000e+01 -4.939963e-19
-1.107000e+01 -5.430891e-19
-1.106000e+01 -5.942158e-19
-1.105000e+01 -6.469738e-19
-1.104000e+01 -7.008626e-19
-1.103000e+01 -7.552752e-19
-1.102000e+01 -8.094923e-19
-1.101000e+01 -8.626774e-19
-1.100000e+01 -9.138719e-19
-1.099000e+01 -9.619947e-19
-1.098000e+01 -1.005841e-18
-1.097000e+01 -1.044087e-18
-1.096000e+01 -1.075292e-18
-1.095000e+01 -1.097913e-18
-1.094000e+01 -1.110312e-18
-1.093000e+01 -1.110775e-18
-1.092000e+01 -1.097529e-18
-1.091000e+01 -1.068771e-18
-1.090000e+01 -1.022691e-18
-1.089000e+01 -9.575085e-19
-1.088000e+01 -8.715058e-19
-1.087000e+01 -7.630698e-19
-1.086000e+01 -6.307354e-19
-1.085000e+01 -4.732318e-19
-1.084000e+01 -2.895318e-19
-1.083000e+01 -7.890213e-20
-1.082000e+01 1.590445e-19
-1.081000e+01 4.242981e-19
-1.080000e+01 7.164011e-19
-1.079000e+01 1.034400e-18
-1.078000e+01 1.376802e-18
-1.077000e+01 1.741536e-18
-1.076000e+01 2.125916e-18
-1.075000e+01 2.526623e-18
-1.074000e+01 2.939683e-18
-1.073000e+01 3.360465e-18
-1.072000e+01 3.783689e-18
-1.071000e+01 4.203443e-18
-1.070000e+01 4.613222e-18
-1.069000e+01 5.005971e-18
-1.068000e+01 5.374155e-18
-1.067000e+01 5.709838e-18
-1.066000e+01 6.004777e-18
-1.065000e+01 6.250539e-18
-1.064000e+01 6.438619e-18
-1.063000e+01 6.560587e-18
-1.062000e+01 6.608231e-18
-1.061000e+01 6.573723e-18
-1.060000e+01 6.449782e-18
-1.059000e+01 6.229845e-18
-1.058000e+01 5.908238e-18
-1.057000e+01 5.480350e-18
-1.056000e+01 4.942782e-18
-1.055000e+01 4.293507e-18
-1.054000e+01 3.532004e-18
-1.053000e+01 2.659368e-18
-1.052000e+01 1.678408e-18
-1.051000e+01 5.937083e-19
-1.050000e+01 -5.883380e-19
-1.049000e+01 -1.859530e-18
-1.048000e+01 -3.209894e-18
-1.047000e+01 -4.627765e-18
-1.046000e+01 -6.099897e-18
-1.045000e+01 -7.611618e-18
-1.044000e+01 -9.147033e-18
-1.043000e+01 -1.068924e-17
-1.042000e+01 -1.222059e-17
-1.041000e+01 -1.372302e-17
-1.040000e+01 -1.517830e-17
-1.039000e+01 -1.656842e-17
-1.038000e+01 -1.787590e-17
-1.037000e+01 -1.908412e-17
-1.036000e+01 -2.017769e-17
-1.035000e+01 -2.114268e-17
-1.034000e+01 -2.196695e-17
-1.033000e+01 -2.264039e-17
-1.032000e+01 -2.315501e-17
-1.031000e+01 -2.350516e-17
-1.030000e+01 -2.368747e-17
-1.029000e+01 -2.370087e-17
-1.028000e+01 -2.354641e-17
-1.027000e+01 -2.322706e-17
-1.026000e+01 -2.274740e-17
-1.025000e+01 -2.211313e-17
-1.024000e+01 -2.133065e-17
-1.023000e+01 -2.040643e-17
-1.022000e+01 -1.934634e-17
-1.021000e+01 -1.815493e-17
-1.020000e+01 -1.683468e-17
-1.019000e+01 -1.538520e-17
-1.018000e+01 -1.380246e-17
-1.017000e+01 -1.207807e-17
-1.016000e+01 -1.019856e-17
-1.015000e+01 -8.144880e-18
-1.014000e+01 -5.891877e-18
-1.013000e+01 -3.408082e-18
-1.012000e+01 -6.556310e-19
-1.011000e+01 2.409549e-18
-1.010000e+01 5.837292e-18
-1.009000e+01 9.682424e-18
-1.008000e+01 1.400369e-17
-1.007000e+01 1.886230e-17
-1.006000e+01 2.432017e-17
-1.005000e+01 3.043775e-17
-1.004000e+01 3.727149e-17
-1.003000e+01 4.487106e-17
-1.002000e+01 5.327616e-17
-1.001000e+01 6.251310e-17
-1.000000e+01 7.259120e-17
-9.990000e+00 8.349899e-17
-9.980000e+00 9.520036e-17
-9.970000e+00 1.076308e-16
-9.960000e+00 1.206938e-16
-9.950000e+00 1.342570e-16
-9.940001e+00 1.481498e-16
-9.930000e+00 1.621604e-16
-9.920000e+00 1.760339e-16
-9.910000e+00 1.894713e-16
-9.900000e+00 2.021292e-16
-9.890000e+00 2.136207e-16
-9.880000e+00 2.235176e-16
-9.870000e+00 2.313533e-16
-9.860001e+00 2.366280e-16
-9.850000e+00 2.388146e-16
-9.840000e+00 2.373662e-16
-9.830000e+00 2.317258e-16
-9.820000e+00 2.213367e-16
-9.809999e+00 2.056548e-16
-9.800000e+00 1.841622e-16
-9.790000e+00 1.563823e-16
-9.780000e+00 1.218953e-16
-9.770000e+00 8.035538e-17
-9.760000e+00 3.150815e-17
-9.750000e+00 -2.479184e-17
-9.740000e+00 -8.856325e-17
-9.730000e+00 -1.596808e-16
-9.720000e+00 -2.378589e-16
-9.710000e+00 -3.226365e-16
-9.700000e+00 -4.133640e-16
-9.690001e+00 -5.091923e-16
-9.680000e+00 -6.090645e-16
-9.670000e+00 -7.117111e-16
-9.660000e+00 -8.156490e-16
-9.650000e+00 -9.191843e-16
-9.640000e+00 -1.020420e-15
-9.630000e+00 -1.117269e-15
-9.620000e+00 -1.207473e-15
-9.610001e+00 -1.288622e-15
-9.600000e+00 -1.358189e-15
-9.590000e+00 -1.413560e-15
-9.580000e+00 -1.452076e-15
-9.570000e+00 -1.471078e-15
-9.559999e+00 -1.467957e-15
-9.550000e+00 -1.440211e-15
-9.540000e+00 -1.385500e-15
-9.530000e+00 -1.301710e-15
-9.520000e+00 -1.187017e-15
-9.510000e+00 -1.039948e-15
-9.500000e+00 -8.594517e-16
-9.490000e+00 -6.449586e-16
-9.480000e+00 -3.964416e-16
-9.470000e+00 -1.144739e-16
-9.460000e+00 1.997209e-16
-9.450000e+00 5.442241e-16
-9.440001e+00 9.163874e-16
-9.430000e+00 1.312808e-15
-9.420000e+00 1.729313e-15
-9.410000e+00 2.160964e-15
-9.400000e+00 2.602066e-15
-9.390000e+00 3.046198e-15
-9.380000e+00 3.486259e-15
-9.370000e+00 3.914530e-15
-9.360001e+00 4.322749e-15
-9.350000e+00 4.702214e-15
-9.340000e+00 5.043888e-15
-9.330000e+00 5.338534e-15
-9.320000e+00 5.576853e-15
-9.309999e+00 5.749650e-15
-9.300000e+00 5.847994e-15
-9.290000e+00 5.863406e-15
-9.280000e+00 5.788041e-15
-9.270000e+00 5.614881e-15
-9.260000e+00 5.337934e-15
-9.250000e+00 4.952415e-15
-9.240000e+00 4.454938e-15
-9.230000e+00 3.843694e-15
-9.220000e+00 3.118612e-15
-9.210000e+00 2.281499e-15
-9.200000e+00 1.336174e-15
-9.190001e+00 2.885601e-16
-9.180000e+00 -8.532473e-16
-9.170000e+00 -2.078939e-15
-9.160000e+00 -3.375996e-15
-9.150000e+00 -4.729723e-15
-9.140000e+00 -6.123333e-15
-9.130000e+00 -7.538065e-15
-9.120000e+00 -8.953347e-15
-9.110001e+00 -1.034701e-14
-9.100000e+00 -1.169554e-14
-9.090000e+00 -1.297435e-14
-9.080000e+00 -1.415817e-14
-9.070000e+00 -1.522134e-14
-9.060000e+00 -1.613827e-14
-9.050000e+00 -1.688386e-14
-9.040000e+00 -1.743392e-14
-9.030000e+00 -1.776567e-14
-9.020000e+00 -1.785821e-14
-9.010000e+00 -1.769298e-14
-9.000000e+00 -1.725425e-14
-8.990000e+00 -1.652955e-14
-8.980000e+00 -1.551009e-14
-8.970000e+00 -1.419118e-14
-8.960000e+00 -1.257254e-14
-8.950000e+00 -1.065862e-14
-8.940001e+00 -8.458795e-15
-8.930000e+00 -5.987565e-15
-8.920000e+00 -3.264609e-15
-8.910000e+00 -3.147942e-16
-8.900000e+00 2.831910e-15
-8.890000e+00 6.140614e-15
-8.880000e+00 9.571782e-15
-8.870000e+00 1.308160e-14
-8.860001e+00 1.662245e-14
-8.850000e+00 2.014343e-14
-8.840000e+00 2.359104e-14
-8.830000e+00 2.690988e-14
-8.820000e+00 3.004343e-14
-8.810000e+00 3.293494e-14
-8.800000e+00 3.552832e-14
-8.790000e+00 3.776906e-14
-8.780000e+00 3.960527e-14
-8.770000e+00 4.098855e-14
-8.760000e+00 4.187506e-14
-8.750000e+00 4.222638e-14
-8.740000e+00 4.201047e-14
-8.730000e+00 4.120242e-14
-8.720000e+00 3.978530e-14
-8.710000e+00 3.775071e-14
-8.700000e+00 3.509938e-14
-8.690001e+00 3.184158e-14
-8.680000e+00 2.799735e-14
-8.670000e+00 2.359661e-14
-8.660000e+00 1.867914e-14
-8.650000e+00 1.329433e-14
-8.640000e+00 7.500758e-15
-8.630000e+00 1.365663e-15
-8.620000e+00 -5.035849e-15
-8.610001e+00 -1.162170e-14
-8.600000e+00 -1.830394e-14
-8.590000e+00 -2.498994e-14
-8.580000e+00 -3.158375e-14
-8.570000e+00 -3.798763e-14
-8.560000e+00 -4.410349e-14
-8.550000e+00 -4.983462e-14
-8.540000e+00 -5.508729e-14
-8.530000e+00 -5.977244e-14
-8.520000e+00 -6.380734e-14
-8.510000e+00 -6.711716e-14
-8.500000e+00 -6.963650e-14
-8.490000e+00 -7.131083e-14
-8.480000e+00 -7.209767e-14
-8.470000e+00 -7.196775e-14
-8.460000e+00 -7.090585e-14
-8.450000e+00 -6.891144e-14
-8.440001e+00 -6.599909e-14
-8.430000e+00 -6.219869e-14
-8.420000e+00 -5.755519e-14
-8.410000e+00 -5.212831e-14
-8.400000e+00 -4.599171e-14
-8.390000e+00 -3.923208e-14
-8.380000e+00 -3.194782e-14
-8.370000e+00 -2.424753e-14
-8.360001e+00 -1.624822e-14
-8.350000e+00 -8.073297e-15
-8.340000e+00 1.496050e-16
-8.330000e+00 8.290979e-15
-8.320000e+00 1.622189e-14
-8.310000e+00 2.381652e-14
-8.300000e+00 3.095466e-14
-8.290000e+00 3.752428e-14
-8.280000e+00 4.342393e-14
-8.270000e+00 4.856502e-14
-8.260000e+00 5.287399e-14
-8.250000e+00 5.629413e-14
-8.240000e+00 5.878722e-14
-8.230000e+00 6.033475e-14
-8.220000e+00 6.093891e-14
-8.210000e+00 6.062296e-14
-8.200000e+00 5.943148e-14
-8.190001e+00 5.742982e-14
-8.180000e+00 5.470342e-14
-8.170000e+00 5.135643e-14
-8.160000e+00 4.751003e-14
-8.150000e+00 4.330018e-14
-8.140000e+00 3.887511e-14
-8.130000e+00 3.439229e-14
-8.120000e+00 3.001512e-14
-8.110001e+00 2.590943e-14
-8.100000e+00 2.223957e-14
-8.090000e+00 1.916455e-14
-8.080000e+00 1.683392e-14
-8.070000e+00 1.538385e-14
-8.060000e+00 1.493314e-14
-8.050000e+00 1.557946e-14
-8.040000e+00 1.739585e-14
-8.030000e+00 2.042760e-14
-8.020000e+00 2.468946e-14
-8.010000e+00 3.016348e-14
-8.000000e+00 3.679729e-14
-7.990000e+00 4.450311e-14
-7.980000e+00 5.315744e-14
-7.970000e+00 6.260143e-14
-7.960000e+00 7.264202e-14
-7.950000e+00 8.305389e-14
-7.940000e+00 9.358217e-14
-7.930000e+00 1.039458e-13
-7.920000e+00 1.138419e-13
-7.910000e+00 1.229502e-13
-7.900000e+00 1.309393e-13
-7.890000e+00 1.374715e-13
-7.880000e+00 1.422106e-13
-7.870000e+00 1.448275e-13
-7.860000e+00 1.450078e-13
-7.850000e+00 1.424591e-13
-7.840000e+00 1.369175e-13
-7.830000e+00 1.281549e-13
-7.820000e+00 1.159854e-13
-7.810000e+00 1.002719e-13
-7.800000e+00 8.093108e-14
-7.790000e+00 5.793837e-14
-7.780000e+00 3.133227e-14
-7.770000e+00 1.217079e-15
-7.760000e+00 -3.223497e-14
-7.750000e+00 -6.878287e-14
-7.740000e+00 -1.081172e-13
-7.730000e+00 -1.498617e-13
-7.720000e+00 -1.935760e-13
-7.710000e+00 -2.387597e-13
-7.700000e+00 -2.848580e-13
-7.690000e+00 -3.312676e-13
-7.680000e+00 -3.773446e-13
-7.670000e+00 -4.224130e-13
-7.660000e+00 -4.657742e-13
-7.650000e+00 -5.067172e-13
-7.640000e+00 -5.445285e-13
-7.630000e+00 -5.785045e-13
-7.620000e+00 -6.079617e-13
-7.610000e+00 -6.322485e-13
-7.600000e+00 -6.507558e-13
-7.590000e+00 -6.629281e-13
-7.580000e+00 -6.682729e-13
-7.570000e+00 -6.663702e-13
-7.560000e+00 -6.568805e-13
-7.550000e+00 -6.395516e-13
-7.540000e+00 -6.142239e-13
-7.530000e+00 -5.808351e-13
-7.520000e+00 -5.394222e-13
-7.510000e+00 -4.901220e-13
-7.500000e+00 -4.331711e-13
-7.490000e+00 -3.689021e-13
-7.480000e+00 -2.977408e-13
-7.470000e+00 -2.201991e-13
-7.460000e+00 -1.368681e-13
-7.450000e+00 -4.840969e-14
-7.440000e+00 4.445384e-14
-7.430000e+00 1.409503e-13
-7.420000e+00 2.402696e-13
-7.410000e+00 3.415753e-13
-7.400000e+00 4.440174e-13
-7.390000e+00 5.467446e-13
-7.380000e+00 6.489159e-13
-7.370000e+00 7.497125e-13
-7.360000e+00 8.483474e-13
-7.350000e+00 9.440751e-13
-7.340000e+00 1.036199e-12
-7.330000e+00 1.124078e-12
-7.320000e+00 1.207131e-12
-7.310000e+00 1.284837e-12
-7.300000e+00 1.356738e-12
-7.290000e+00 1.422435e-12
-7.280000e+00 1.481586e-12
-7.270000e+00 1.533897e-12
-7.260000e+00 1.579117e-12
-7.250000e+00 1.617025e-12
-7.240000e+00 1.647420e-12
-7.230000e+00 1.670109e-12
-7.220000e+00 1.684892e-12
-7.210000e+00 1.691549e-12
-7.200000e+00 1.689826e-12
-7.190000e+00 1.679418e-12
-7.180000e+00 1.659961e-12
-7.170000e+00 1.631019e-12
-7.160000e+00 1.592071e-12
-7.150000e+00 1.542509e-12
-7.140000e+00 1.481631e-12
-7.130000e+00 1.408641e-12
-7.120000e+00 1.322652e-12
-7.110000e+00 1.222691e-12
-7.100000e+00 1.107715e-12
-7.090000e+00 9.766236e-13
-7.080000e+00 8.282813e-13
-7.070000e+00 6.615427e-13
-7.060000e+00 4.752824e-13
-7.050000e+00 2.684308e-13
-7.040000e+00 4.001165e-14
-7.030000e+00 -2.108151e-13
-7.020000e+00 -4.847079e-13
-7.010000e+00 -7.820959e-13
-7.000000e+00 -1.103130e-12
-6.990000e+00 -1.447633e-12
-6.980000e+00 -1.815049e-12
-6.970000e+00 -2.204398e-12
-6.960000e+00 -2.614226e-12
-6.950000e+00 -3.042570e-12
-6.940000e+00 -3.486914e-12
-6.930000e+00 -3.944164e-12
-6.920000e+00 -4.410624e-12
-6.910000e+00 -4.881981e-12
-6.900000e+00 -5.353301e-12
-6.890000e+00 -5.819032e-12
-6.880000e+00 -6.273032e-12
-6.870000e+00 -6.708583e-12
-6.860000e+00 -7.118452e-12
-6.850000e+00 -7.494933e-12
-6.840000e+00 -7.829927e-12
-6.830000e+00 -8.115021e-12
-6.820000e+00 -8.341584e-12
-6.810000e+00 -8.500880e-12
-6.800000e+00 -8.584185e-12
-6.790000e+00 -8.582924e-12
-6.780000e+00 -8.488811e-12
-6.770000e+00 -8.293997e-12
-6.760000e+00 -7.991228e-12
-6.750000e+00 -7.574005e-12
-6.740000e+00 -7.036743e-12
-6.730000e+00 -6.374938e-12
-6.720000e+00 -5.585323e-12
-6.710000e+00 -4.666018e-12
-6.700000e+00 -3.616674e-12
-6.690000e+00 -2.438612e-12
-6.680000e+00 -1.134934e-12
-6.670000e+00 2.893703e-13
-6.660000e+00 1.827348e-12
-6.650000e+00 3.470017e-12
-6.640000e+00 5.206338e-12
-6.630000e+00 7.023204e-12
-6.620000e+00 8.905457e-12
-6.610000e+00 1.083595e-11
-6.600000e+00 1.279562e-11
-6.590000e+00 1.476361e-11
-6.580000e+00 1.671739e-11
-6.570000e+00 1.863301e-11
-6.560000e+00 2.048522e-11
-6.550000e+00 2.224778e-11
-6.540000e+00 2.389368e-11
-6.530000e+00 2.539548e-11
-6.520000e+00 2.672564e-11
-6.510000e+00 2.785682e-11
-6.500000e+00 2.876227e-11
-6.490000e+00 2.941621e-11
-6.480000e+00 2.979421e-11
-6.470000e+00 2.987358e-11
-6.460000e+00 2.963376e-11
-6.450000e+00 2.905671e-11
-6.440000e+00 2.812729e-11
-6.430000e+00 2.683359e-11
-6.420000e+00 2.516730e-11
-6.410000e+00 2.312401e-11
-6.400000e+00 2.070346e-11
-6.390000e+00 1.790982e-11
-6.380000e+00 1.475184e-11
-6.370000e+00 1.124304e-11
-6.360000e+00 7.401778e-12
-6.350000e+00 3.251284e-12
-6.340000e+00 -1.180331e-12
-6.330000e+00 -5.860174e-12
-6.320000e+00 -1.075071e-11
-6.310000e+00 -1.580995e-11
-6.300000e+00 -2.099175e-11
-6.290000e+00 -2.624612e-11
-6.280000e+00 -3.151962e-11
-6.270000e+00 -3.675583e-11
-6.260000e+00 -4.189584e-11
-6.250000e+00 -4.687881e-11
-6.240000e+00 -5.164260e-11
-6.230000e+00 -5.612441e-11
-6.220000e+00 -6.026148e-11
-6.210000e+00 -6.399178e-11
-6.200000e+00 -6.725480e-11
-6.190000e+00 -6.999226e-11
-6.180000e+00 -7.214888e-11
-6.170000e+00 -7.367315e-11
-6.160000e+00 -7.451806e-11
-6.150000e+00 -7.464183e-11
-6.140000e+00 -7.400867e-11
-6.130000e+00 -7.258927e-11
-6.120000e+00 -7.036159e-11
-6.110000e+00 -6.731129e-11
-6.100000e+00 -6.343225e-11
-6.090000e+00 -5.872700e-11
-6.080000e+00 -5.320701e-11
-6.070000e+00 -4.689298e-11
-6.060000e+00 -3.981492e-11
-6.050000e+00 -3.201227e-11
-6.040000e+00 -2.353385e-11
-6.030000e+00 -1.443762e-11
-6.020000e+00 -4.790504e-12
-6.010000e+00 5.332001e-12
-6.000000e+00 1.584633e-11
-5.990000e+00 2.666139e-11
-5.980000e+00 3.767929e-11
-5.970000e+00 4.879608e-11
-5.960000e+00 5.990265e-11
-5.950000e+00 7.088574e-11
-5.940000e+00 8.162888e-11
-5.930000e+00 9.201360e-11
-5.920000e+00 1.019206e-10
-5.910000e+00 1.112308e-10
-5.900000e+00 1.198269e-10
-5.890000e+00 1.275946e-10
-5.880000e+00 1.344237e-10
-5.870000e+00 1.402096e-10
-5.860000e+00 1.448545e-10
-5.850000e+00 1.482688e-10
-5.840000e+00 1.503722e-10
-5.830000e+00 1.510950e-10
-5.820000e+00 1.503790e-10
-5.810000e+00 1.481787e-10
-5.800000e+00 1.444623e-10
-5.790000e+00 1.392121e-10
-5.780000e+00 1.324257e-10
-5.770000e+00 1.241162e-10
-5.760000e+00 1.143127e-10
-5.750000e+00 1.030606e-10
-5.740000e+00 9.042155e-11
-5.730000e+00 7.647361e-11
-5.720000e+00 6.131075e-11
-5.710000e+00 4.504248e-11
-5.700000e+00 2.779332e-11
-5.690000e+00 9.701856e-12
-5.680000e+00 -9.080119e-12
-5.670000e+00 -2.838882e-11
-5.660000e+00 -4.804976e-11
-5.650000e+00 -6.787928e-11
-5.640000e+00 -8.768610e-11
-5.630000e+00 -1.072732e-10
-5.620000e+00 -1.264394e-10
-5.610000e+00 -1.449820e-10
-5.600000e+00 -1.626982e-10
-5.590000e+00 -1.793875e-10
-5.580000e+00 -1.948540e-10
-5.570000e+00 -2.089086e-10
-5.560000e+00 -2.213710e-10
-5.550000e+00 -2.320724e-10
-5.540000e+00 -2.408570e-10
-5.530000e+00 -2.475847e-10
-5.520000e+00 -2.521327e-10
-5.510000e+00 -2.543974e-10
-5.500000e+00 -2.542963e-10
-5.490000e+00 -2.517693e-10
-5.480000e+00 -2.467801e-10
-5.470000e+00 -2.393173e-10
-5.460000e+00 -2.293955e-10
-5.450000e+00 -2.170551e-10
-5.440000e+00 -2.023635e-10
-5.430000e+00 -1.854147e-10
-5.420000e+00 -1.663289e-10
-5.410000e+00 -1.452519e-10
-5.400000e+00 -1.223546e-10
-5.390000e+00 -9.783101e-11
-5.380000e+00 -7.189734e-11
-5.370000e+00 -4.478974e-11
-5.360000e+00 -1.676231e-11
-5.350000e+00 1.191546e-11
-5.340000e+00 4.096130e-11
-5.330000e+00 7.008316e-11
-5.320000e+00 9.898234e-11
-5.310000e+00 1.273568e-10
-5.300000e+00 1.549045e-10
-5.290000e+00 1.813272e-10
-5.280000e+00 2.063339e-10
-5.270000e+00 2.296442e-10
-5.260000e+00 2.509927e-10
-5.250000e+00 2.701313e-10
-5.240000e+00 2.868336e-10
-5.230000e+00 3.008978e-10
-5.220000e+00 3.121492e-10
-5.210000e+00 3.204434e-10
-5.200000e+00 3.256686e-10
-5.190000e+00 3.277476e-10
-5.180000e+00 3.266391e-10
-5.170000e+00 3.223396e-10
-5.160000e+00 3.148831e-10
-5.150000e+00 3.043425e-10
-5.140000e+00 2.908283e-10
-5.130000e+00 2.744886e-10
-5.120000e+00 2.555072e-10
-5.110000e+00 2.341025e-10
-5.100000e+00 2.105243e-10
-5.090000e+00 1.850516e-10
-5.080000e+00 1.579892e-10
-5.070000e+00 1.296638e-10
-5.060000e+00 1.004199e-10
-5.050000e+00 7.061553e-11
-5.040000e+00 4.061729e-11
-5.030000e+00 1.079536e-11
-5.020000e+00 -1.848163e-11
-5.010000e+00 -4.685195e-11
-5.000000e+00 -7.396603e-11
-4.990000e+00 -9.949178e-11
-4.980000e+00 -1.231197e-10
-4.970000e+00 -1.445678e-10
-4.960000e+00 -1.635862e-10
-4.950000e+00 -1.799618e-10
-4.940000e+00 -1.935214e-10
-4.930000e+00 -2.041356e-10
-4.920000e+00 -2.117214e-10
-4.910000e+00 -2.162444e-10
-4.900000e+00 -2.177197e-10
-4.890000e+00 -2.162135e-10
-4.880000e+00 -2.118421e-10
-4.870000e+00 -2.047717e-10
-4.860000e+00 -1.952163e-10
-4.850000e+00 -1.834354e-10
-4.840000e+00 -1.697307e-10
-4.830000e+00 -1.544419e-10
-4.820000e+00 -1.379423e-10
-4.810000e+00 -1.206327e-10
-4.800000e+00 -1.029359e-10
-4.790000e+00 -8.528986e-11
-4.780000e+00 -6.814044e-11
-4.770000e+00 -5.193411e-11
-4.760000e+00 -3.711015e-11
-4.750000e+00 -2.409276e-11
-4.740000e+00 -1.328315e-11
-4.730000e+00 -5.051665e-12
-4.720000e+00 2.698021e-13
-4.710000e+00 2.395127e-12
-4.700000e+00 1.090762e-12
-4.690000e+00 -3.818032e-12
-4.680000e+00 -1.244167e-11
-4.670000e+00 -2.482152e-11
-4.660000e+00 -4.092618e-11
-4.650000e+00 -6.064866e-11
-4.640000e+00 -8.380482e-11
-4.630000e+00 -1.101328e-10
-4.620000e+00 -1.392936e-10
-4.610000e+00 -1.708737e-10
-4.600000e+00 -2.043874e-10
-4.590000e+00 -2.392822e-10
-4.580000e+00 -2.749439e-10
-4.570000e+00 -3.107040e-10
-4.560000e+00 -3.458480e-10
-4.550000e+00 -3.796239e-10
-4.540000e+00 -4.112530e-10
-4.530000e+00 -4.399409e-10
-4.520000e+00 -4.648889e-10
-4.510000e+00 -4.853064e-10
-4.500000e+00 -5.004239e-10
-4.490000e+00 -5.095057e-10
-4.480000e+00 -5.118629e-10
-4.470000e+00 -5.068665e-10
-4.460000e+00 -4.939594e-10
-4.450000e+00 -4.726689e-10
-4.440000e+00 -4.426178e-10
-4.430000e+00 -4.035347e-10
-4.420000e+00 -3.552629e-10
-4.410000e+00 -2.977691e-10
-4.400000e+00 -2.311492e-10
-4.390000e+00 -1.556334e-10
-4.380000e+00 -7.158995e-11
-4.370000e+00 2.047438e-11
-4.360000e+00 1.199140e-10
-4.350000e+00 2.259473e-10
-4.340000e+00 3.376610e-10
-4.330000e+00 4.540166e-10
-4.320000e+00 5.738585e-10
-4.310000e+00 6.959248e-10
-4.300000e+00 8.188586e-10
-4.290000e+00 9.412228e-10
-4.280000e+00 1.061514e-09
-4.270000e+00 1.178182e-09
-4.260000e+00 1.289644e-09
-4.250000e+00 1.394308e-09
-4.240000e+00 1.490587e-09
-4.230000e+00 1.576925e-09
-4.220000e+00 1.651816e-09
-4.210000e+00 1.713821e-09
-4.200000e+00 1.761594e-09
-4.190000e+00 1.793896e-09
-4.180000e+00 1.809618e-09
-4.170000e+00 1.807800e-09
-4.160000e+00 1.787641e-09
-4.150000e+00 1.748521e-09
-4.140000e+00 1.690007e-09
-4.130000e+00 1.611872e-09
-4.120000e+00 1.514096e-09
-4.110000e+00 1.396876e-09
-4.100000e+00 1.260627e-09
-4.090000e+00 1.105989e-09
-4.080000e+00 9.338146e-10
-4.070000e+00 7.451738e-10
-4.060000e+00 5.413415e-10
-4.050000e+00 3.237885e-10
-4.040000e+00 9.416883e-11
-4.030000e+00 -1.456966e-10
-4.020000e+00 -3.938374e-10
-4.010000e+00 -6.481536e-10
-4.000000e+00 -9.064393e-10
-3.990000e+00 -1.166404e-09
-3.980000e+00 -1.425701e-09
-3.970000e+00 -1.681953e-09
-3.960000e+00 -1.932777e-09
-3.950000e+00 -2.175819e-09
-3.940001e+00 -2.408773e-09
-3.930000e+00 -2.629419e-09
-3.920000e+00 -2.835644e-09
-3.910000e+00 -3.025471e-09
-3.900001e+00 -3.197085e-09
-3.890000e+00 -3.348858e-09
-3.880000e+00 -3.479369e-09
-3.870000e+00 -3.587426e-09
-3.860001e+00 -3.672084e-09
-3.850000e+00 -3.732662e-09
-3.840000e+00 -3.768749e-09
-3.830000e+00 -3.780223e-09
-3.820001e+00 -3.767248e-09
-3.810000e+00 -3.730285e-09
-3.800000e+00 -3.670086e-09
-3.790000e+00 -3.587695e-09
-3.780000e+00 -3.484434e-09
-3.770000e+00 -3.361901e-09
-3.760000e+00 -3.221955e-09
-3.750000e+00 -3.066692e-09
-3.740000e+00 -2.898438e-09
-3.730000e+00 -2.719715e-09
-3.720000e+00 -2.533225e-09
-3.710000e+00 -2.341821e-09
-3.700000e+00 -2.148476e-09
-3.690001e+00 -1.956259e-09
-3.680000e+00 -1.768297e-09
-3.670000e+00 -1.587747e-09
-3.660000e+00 -1.417762e-09
-3.650001e+00 -1.261462e-09
-3.640000e+00 -1.121894e-09
-3.630000e+00 -1.002006e-09
-3.620000e+00 -9.046148e-10
-3.610001e+00 -8.323739e-10
-3.600000e+00 -7.877474e-10
-3.590000e+00 -7.729822e-10
-3.580000e+00 -7.900833e-10
-3.570001e+00 -8.407934e-10
-3.560000e+00 -9.265712e-10
-3.550000e+00 -1.048577e-09
-3.540000e+00 -1.207656e-09
-3.530000e+00 -1.404331e-09
-3.520000e+00 -1.638793e-09
-3.510000e+00 -1.910897e-09
-3.500000e+00 -2.220162e-09
-3.490000e+00 -2.565774e-09
-3.480000e+00 -2.946587e-09
-3.470000e+00 -3.361141e-09
-3.460000e+00 -3.807665e-09
-3.450000e+00 -4.284096e-09
-3.440001e+00 -4.788097e-09
-3.430000e+00 -5.317077e-09
-3.420000e+00 -5.868214e-09
-3.410000e+00 -6.438480e-09
-3.400001e+00 -7.024668e-09
-3.390000e+00 -7.623423e-09
-3.380000e+00 -8.231269e-09
-3.370000e+00 -8.844642e-09
-3.360001e+00 -9.459925e-09
-3.350000e+00 -1.007348e-08
-3.340000e+00 -1.068168e-08
-3.330000e+00 -1.128095e-08
-3.320001e+00 -1.186777e-08
-3.310000e+00 -1.243877e-08
-3.300000e+00 -1.299070e-08
-3.290000e+00 -1.352048e-08
-3.280000e+00 -1.402526e-08
-3.270000e+00 -1.450240e-08
-3.260000e+00 -1.494953e-08
-3.250000e+00 -1.536456e-08
-3.240000e+00 -1.574570e-08
-3.230000e+00 -1.609150e-08
-3.220000e+00 -1.640083e-08
-3.210000e+00 -1.667294e-08
-3.200000e+00 -1.690741e-08
-3.190001e+00 -1.710422e-08
-3.180000e+00 -1.726371e-08
-3.170000e+00 -1.738661e-08
-3.160000e+00 -1.747402e-08
-3.150001e+00 -1.752740e-08
-3.140000e+00 -1.754858e-08
-3.130000e+00 -1.753973e-08
-3.120000e+00 -1.750334e-08
-3.110001e+00 -1.744223e-08
-3.100000e+00 -1.735949e-08
-3.090000e+00 -1.725849e-08
-3.080000e+00 -1.714281e-08
-3.070001e+00 -1.701625e-08
-3.060000e+00 -1.688277e-08
-3.050000e+00 -1.674647e-08
-3.040000e+00 -1.661155e-08
-3.030000e+00 -1.648226e-08
-3.020000e+00 -1.636286e-08
-3.010000e+00 -1.625760e-08
-3.000000e+00 -1.617066e-08
-2.990000e+00 -1.610613e-08
-2.980000e+00 -1.606793e-08
-2.970000e+00 -1.605981e-08
-2.960000e+00 -1.608530e-08
-2.950000e+00 -1.614766e-08
-2.940001e+00 -1.624986e-08
-2.930000e+00 -1.639455e-08
-2.920000e+00 -1.658401e-08
-2.910000e+00 -1.682016e-08
-2.900001e+00 -1.710450e-08
-2.890000e+00 -1.743814e-08
-2.880000e+00 -1.782172e-08
-2.870000e+00 -1.825547e-08
-2.860001e+00 -1.873916e-08
-2.850000e+00 -1.927211e-08
-2.840000e+00 -1.985324e-08
-2.830000e+00 -2.048100e-08
-2.820001e+00 -2.115348e-08
-2.810000e+00 -2.186833e-08
-2.800000e+00 -2.262289e-08
-2.790000e+00 -2.341415e-08
-2.780000e+00 -2.423879e-08
-2.770000e+00 -2.509328e-08
-2.760000e+00 -2.597384e-08
-2.750000e+00 -2.687655e-08
-2.740000e+00 -2.779736e-08
-2.730000e+00 -2.873217e-08
-2.720000e+00 -2.967684e-08
-2.710000e+00 -3.062731e-08
-2.700000e+00 -3.157959e-08
-2.690001e+00 -3.252984e-08
-2.680000e+00 -3.347441e-08
-2.670000e+00 -3.440990e-08
-2.660000e+00 -3.533322e-08
-2.650001e+00 -3.624158e-08
-2.640000e+00 -3.713259e-08
-2.630000e+00 -3.800426e-08
-2.620000e+00 -3.885503e-08
-2.610001e+00 -3.968381e-08
-2.600000e+00 -4.048998e-08
-2.590000e+00 -4.127341e-08
-2.580000e+00 -4.203446e-08
-2.570001e+00 -4.277399e-08
-2.560000e+00 -4.349331e-08
-2.550000e+00 -4.419423e-08
-2.540000e+00 -4.487897e-08
-2.530001e+00 -4.555019e-08
-2.520000e+00 -4.621091e-08
-2.510000e+00 -4.686448e-08
-2.500000e+00 -4.751454e-08
-2.490000e+00 -4.816498e-08
-2.480000e+00 -4.881985e-08
-2.470000e+00 -4.948335e-08
-2.460000e+00 -5.015974e-08
-2.450000e+00 -5.085328e-08
-2.440001e+00 -5.156818e-08
-2.430000e+00 -5.230851e-08
-2.420000e+00 -5.307820e-08
-2.410000e+00 -5.388093e-08
-2.400001e+00 -5.472009e-08
-2.390000e+00 -5.559874e-08
-2.380000e+00 -5.651956e-08
-2.370000e+00 -5.748482e-08
-2.360001e+00 -5.849630e-08
-2.350000e+00 -5.955537e-08
-2.340000e+00 -6.066285e-08
-2.330000e+00 -6.181907e-08
-2.320001e+00 -6.302390e-08
-2.310000e+00 -6.427665e-08
-2.300000e+00 -6.557619e-08
-2.290000e+00 -6.692090e-08
-2.280001e+00 -6.830875e-08
-2.270000e+00 -6.973733e-08
-2.260000e+00 -7.120386e-08
-2.250000e+00 -7.270529e-08
-2.240000e+00 -7.423832e-08
-2.230000e+00 -7.579946e-08
-2.220000e+00 -7.738512e-08
-2.210000e+00 -7.899168e-08
-2.200000e+00 -8.061554e-08
-2.190001e+00 -8.225317e-08
-2.180000e+00 -8.390123e-08
-2.170000e+00 -8.555660e-08
-2.160000e+00 -8.721644e-08
-2.150001e+00 -8.887827e-08
-2.140000e+00 -9.054003e-08
-2.130000e+00 -9.220011e-08
-2.120000e+00 -9.385736e-08
-2.110001e+00 -9.551120e-08
-2.100000e+00 -9.716159e-08
-2.090000e+00 -9.880904e-08
-2.080000e+00 -1.004547e-07
-2.070001e+00 -1.021001e-07
-2.060000e+00 -1.037476e-07
-2.050000e+00 -1.054000e-07
-2.040000e+00 -1.070605e-07
-2.030001e+00 -1.087329e-07
-2.020000e+00 -1.104213e-07
-2.010000e+00 -1.121302e-07
-2.000000e+00 -1.138645e-07
-1.990000e+00 -1.156291e-07
-1.980000e+00 -1.174295e-07
-1.970000e+00 -1.192707e-07
-1.960000e+00 -1.211582e-07
-1.950000e+00 -1.230972e-07
-1.940001e+00 -1.250927e-07
-1.930000e+00 -1.271496e-07
-1.920000e+00 -1.292725e-07
-1.910000e+00 -1.314655e-07
-1.900001e+00 -1.337325e-07
-1.890000e+00 -1.360767e-07
-1.880000e+00 -1.385008e-07
-1.870000e+00 -1.410071e-07
-1.860001e+00 -1.435970e-07
-1.850000e+00 -1.462716e-07
-1.840000e+00 -1.490312e-07
-1.830000e+00 -1.518754e-07
-1.820001e+00 -1.548033e-07
-1.810000e+00 -1.578134e-07
-1.800000e+00 -1.609037e-07
-1.790000e+00 -1.640716e-07
-1.780001e+00 -1.673139e-07
-1.770000e+00 -1.706273e-07
-1.760000e+00 -1.740079e-07
-1.750000e+00 -1.774517e-07
-1.740000e+00 -1.809545e-07
-1.730000e+00 -1.845119e-07
-1.720000e+00 -1.881197e-07
-1.710000e+00 -1.917734e-07
-1.700000e+00 -1.954691e-07
-1.690001e+00 -1.992028e-07
-1.680000e+00 -2.029710e-07
-1.670000e+00 -2.067705e-07
-1.660000e+00 -2.105986e-07
-1.650001e+00 -2.144532e-07
-1.640000e+00 -2.183325e-07
-1.630000e+00 -2.222356e-07
-1.620000e+00 -2.261620e-07
-1.610001e+00 -2.301121e-07
-1.600000e+00 -2.340866e-07
-1.590000e+00 -2.380873e-07
-1.580000e+00 -2.421162e-07
-1.570001e+00 -2.461762e-07
-1.560000e+00 -2.502706e-07
-1.550000e+00 -2.544033e-07
-1.540000e+00 -2.585788e-07
-1.530001e+00 -2.628015e-07
-1.520000e+00 -2.670766e-07
-1.510000e+00 -2.714094e-07
-1.500000e+00 -2.758053e-07
-1.490000e+00 -2.802697e-07
-1.480000e+00 -2.848081e-07
-1.470000e+00 -2.894257e-07
-1.460000e+00 -2.941277e-07
-1.450000e+00 -2.989189e-07
-1.440001e+00 -3.038037e-07
-1.430000e+00 -3.087862e-07
-1.420000e+00 -3.138699e-07
-1.410000e+00 -3.190578e-07
-1.400001e+00 -3.243522e-07
-1.390000e+00 -3.297550e-07
-1.380000e+00 -3.352672e-07
-1.370000e+00 -3.408894e-07
-1.360001e+00 -3.466214e-07
-1.350000e+00 -3.524625e-07
-1.340000e+00 -3.584115e-07
-1.330000e+00 -3.644664e-07
-1.320001e+00 -3.706251e-07
-1.310000e+00 -3.768847e-07
-1.300000e+00 -3.832423e-07
-1.290000e+00 -3.896947e-07
-1.280001e+00 -3.962384e-07
-1.270000e+00 -4.028700e-07
-1.260000e+00 -4.095862e-07
-1.250000e+00 -4.163837e-07
-1.240000e+00 -4.232596e-07
-1.230000e+00 -4.302112e-07
-1.220000e+00 -4.372365e-07
-1.210000e+00 -4.443336e-07
-1.200000e+00 -4.515016e-07
-1.190001e+00 -4.587402e-07
-1.180000e+00 -4.660496e-07
-1.170000e+00 -4.734311e-07