-1.200000e+01 0.000000e+00
-1.199000e+01 0.000000e+00
-1.198000e+01 0.000000e+00
-1.197000e+01 0.000000e+00
-1.196000e+01 2.819700e-29
-1.195000e+01 -1.279754e-25
-1.194000e+01 -1.380197e-24
-1.193000e+01 -8.081412e-24
-1.192000e+01 -3.403141e-23
-1.191000e+01 -1.152662e-22
-1.190000e+01 -3.332190e-22
-1.189000e+01 -8.525315e-22
-1.188000e+01 -1.977510e-21
-1.187000e+01 -4.229920e-21
-1.186000e+01 -8.448181e-21
-1.185000e+01 -1.590387e-20
-1.184000e+01 -2.842574e-20
-1.183000e+01 -4.851441e-20
-1.182000e+01 -7.942274e-20
-1.181000e+01 -1.251685e-19
-1.180000e+01 -1.904383e-19
-1.179000e+01 -2.803344e-19
-1.178000e+01 -3.999141e-19
-1.177000e+01 -5.534706e-19
-1.176000e+01 -7.435108e-19
-1.175000e+01 -9.693969e-19
-1.174000e+01 -1.225641e-18
-1.173000e+01 -1.499864e-18
-1.172000e+01 -1.770469e-18
-1.171000e+01 -2.004124e-18
-1.170000e+01 -2.153177e-18
-1.169000e+01 -2.153206e-18
-1.168000e+01 -1.920922e-18
-1.167000e+01 -1.352714e-18
-1.166000e+01 -3.241461e-19
-1.165000e+01 1.309254e-18
-1.164000e+01 3.709570e-18
-1.163000e+01 7.052101e-18
-1.162000e+01 1.151871e-17
-1.161000e+01 1.728869e-17
-1.160000e+01 2.452702e-17
-1.159000e+01 3.337007e-17
-1.158000e+01 4.390877e-17
-1.157000e+01 5.616983e-17
-1.156000e+01 7.009524e-17
-1.155000e+01 8.552120e-17
-1.154000e+01 1.021570e-16
-1.153000e+01 1.195654e-16
-1.152000e+01 1.371457e-16
-1.151000e+01 1.541208e-16
-1.150000e+01 1.695302e-16
-1.149000e+01 1.822303e-16
-1.148000e+01 1.909032e-16
-1.147000e+01 1.940763e-16
-1.146000e+01 1.901525e-16
-1.145000e+01 1.774533e-16
-1.144000e+01 1.542735e-16
-1.143000e+01 1.189485e-16
-1.142000e+01 6.993337e-17
-1.141000e+01 5.891245e-18
-1.140000e+01 -7.421028e-17
-1.139000e+01 -1.709978e-16
-1.138000e+01 -2.845899e-16
-1.137000e+01 -4.144974e-16
-1.136000e+01 -5.595318e-16
-1.135000e+01 -7.177263e-16
-1.134000e+01 -8.862756e-16
-1.133000e+01 -1.061499e-15
-1.132000e+01 -1.238831e-15
-1.131000e+01 -1.412850e-15
-1.130000e+01 -1.577337e-15
-1.129000e+01 -1.725382e-15
-1.128000e+01 -1.849525e-15
-1.127000e+01 -1.941949e-15
-1.126000e+01 -1.994701e-15
-1.125000e+01 -1.999961e-15
-1.124000e+01 -1.950337e-15
-1.123000e+01 -1.839180e-15
-1.122000e+01 -1.660930e-15
-1.121000e+01 -1.411441e-15
-1.120000e+01 -1.088323e-15
-1.119000e+01 -6.912453e-16
-1.118000e+01 -2.222071e-16
-1.117000e+01 3.142383e-16
-1.116000e+01 9.108292e-16
-1.115000e+01 1.557518e-15
-1.114000e+01 2.241484e-15
-1.113000e+01 2.947246e-15
-1.112000e+01 3.656877e-15
-1.111000e+01 4.350339e-15
-1.110000e+01 5.005914e-15
-1.109000e+01 5.600748e-15
-1.108000e+01 6.111489e-15
-1.107000e+01 6.515002e-15
-1.106000e+01 6.789153e-15
-1.105000e+01 6.913635e-15
-1.104000e+01 6.870806e-15
-1.103000e+01 6.646513e-15
-1.102000e+01 6.230885e-15
-1.101000e+01 5.619032e-15
-1.100000e+01 4.811652e-15
-1.099000e+01 3.815489e-15
-1.098000e+01 2.643632e-15
-1.097000e+01 1.315618e-15
-1.096000e+01 -1.426753e-16
-1.095000e+01 -1.699362e-15
-1.094000e+01 -3.317111e-15
-1.093000e+01 -4.953941e-15
-1.092000e+01 -6.564232e-15
-1.091000e+01 -8.099940e-15
-1.090000e+01 -9.511987e-15
-1.089000e+01 -1.075178e-14
-1.088000e+01 -1.177285e-14
-1.087000e+01 -1.253248e-14
-1.086000e+01 -1.299339e-14
-1.085000e+01 -1.312528e-14
-1.084000e+01 -1.290633e-14
-1.083000e+01 -1.232439e-14
-1.082000e+01 -1.137803e-14
-1.081000e+01 -1.007721e-14
-1.080000e+01 -8.443682e-15
-1.079000e+01 -6.510905e-15
-1.078000e+01 -4.323657e-15
-1.077000e+01 -1.937176e-15
-1.076000e+01 5.840951e-16
-1.075000e+01 3.168153e-15
-1.074000e+01 5.737437e-15
-1.073000e+01 8.211131e-15
-1.072000e+01 1.050771e-14
-1.071000e+01 1.254767e-14
-1.070000e+01 1.425624e-14
-1.069000e+01 1.556626e-14
-1.068000e+01 1.642070e-14
-1.067000e+01 1.677516e-14
-1.066000e+01 1.659993e-14
-1.065000e+01 1.588166e-14
-1.064000e+01 1.462455e-14
-1.063000e+01 1.285095e-14
-1.062000e+01 1.060136e-14
-1.061000e+01 7.933755e-15
-1.060000e+01 4.922282e-15
-1.059000e+01 1.655274e-15
-1.058000e+01 -1.767301e-15
-1.057000e+01 -5.236948e-15
-1.056000e+01 -8.640193e-15
-1.055000e+01 -1.186247e-14
-1.054000e+01 -1.479220e-14
-1.053000e+01 -1.732498e-14
-1.052000e+01 -1.936759e-14
-1.051000e+01 -2.084185e-14
-1.050000e+01 -2.168799e-14
-1.049000e+01 -2.186749e-14
-1.048000e+01 -2.136524e-14
-1.047000e+01 -2.019089e-14
-1.046000e+01 -1.837922e-14
-1.045000e+01 -1.598966e-14
-1.044000e+01 -1.310477e-14
-1.043000e+01 -9.827707e-15
-1.042000e+01 -6.278810e-15
-1.041000e+01 -2.591338e-15
-1.040000e+01 1.093519e-15
-1.039000e+01 4.632172e-15
-1.038000e+01 7.884531e-15
-1.037000e+01 1.072003e-14
-1.036000e+01 1.302359e-14
-1.035000e+01 1.470118e-14
-1.034000e+01 1.568489e-14
-1.033000e+01 1.593712e-14
-1.032000e+01 1.545371e-14
-1.031000e+01 1.426594e-14
-1.030000e+01 1.244106e-14
-1.029000e+01 1.008141e-14
-1.028000e+01 7.321959e-15
-1.027000e+01 4.326310e-15
-1.026000e+01 1.281307e-15
-1.025000e+01 -1.609772e-15
-1.024000e+01 -4.135126e-15
-1.023000e+01 -6.083270e-15
-1.022000e+01 -7.252471e-15
-1.021000e+01 -7.460458e-15
-1.020000e+01 -6.554049e-15
-1.019000e+01 -4.418275e-15
-1.018000e+01 -9.846307e-16
-1.017000e+01 3.761937e-15
-1.016000e+01 9.777677e-15
-1.015000e+01 1.695662e-14
-1.014000e+01 2.512939e-14
-1.013000e+01 3.406443e-14
-1.012000e+01 4.347177e-14
-1.011000e+01 5.300931e-14
-1.010000e+01 6.229173e-14
-1.009000e+01 7.090157e-14
-1.008000e+01 7.840255e-14
-1.007000e+01 8.435447e-14
-1.006000e+01 8.832950e-14
-1.005000e+01 8.992920e-14
-1.004000e+01 8.880167e-14
-1.003000e+01 8.465832e-14
-1.002000e+01 7.728953e-14
-1.001000e+01 6.657860e-14
-1.000000e+01 5.251333e-14
-9.990000e+00 3.519469e-14
-9.980000e+00 1.484209e-14
-9.970000e+00 -8.205204e-15
-9.960000e+00 -3.349078e-14
-9.950000e+00 -6.044805e-14
-9.940001e+00 -8.841144e-14
-9.930000e+00 -1.166320e-13
-9.920000e+00 -1.442964e-13
-9.910000e+00 -1.705501e-13
-9.900000e+00 -1.945224e-13
-9.890000e+00 -2.153544e-13
-9.880000e+00 -2.322280e-13
-9.870000e+00 -2.443947e-13
-9.860001e+00 -2.512047e-13
-9.850000e+00 -2.521336e-13
-9.840000e+00 -2.468064e-13
-9.830000e+00 -2.350184e-13
-9.820000e+00 -2.167507e-13
-9.809999e+00 -1.921812e-13
-9.800000e+00 -1.616890e-13
-9.790000e+00 -1.258525e-13
-9.780000e+00 -8.544067e-14
-9.770000e+00 -4.139801e-14
-9.760000e+00 5.177717e-15
-9.750000e+00 5.306342e-14
-9.740000e+00 1.009443e-13
-9.730000e+00 1.474520e-13
-9.720000e+00 1.912064e-13
-9.710000e+00 2.308595e-13
-9.700000e+00 2.651403e-13
-9.690001e+00 2.928990e-13
-9.680000e+00 3.131494e-13
-9.670000e+00 3.251073e-13
-9.660000e+00 3.282236e-13
-9.650000e+00 3.222118e-13
-9.640000e+00 3.070669e-13
-9.630000e+00 2.830763e-13
-9.620000e+00 2.508212e-13
-9.610001e+00 2.111681e-13
-9.600000e+00 1.652507e-13
-9.590000e+00 1.144418e-13
-9.580000e+00 6.031638e-14
-9.570000e+00 4.606392e-15
-9.559999e+00 -5.085157e-14
-9.550000e+00 -1.041740e-13
-9.540000e+00 -1.534918e-13
-9.530000e+00 -1.970140e-13
-9.520000e+00 -2.330905e-13
-9.510000e+00 -2.602728e-13
-9.500000e+00 -2.773703e-13
-9.490000e+00 -2.834994e-13
-9.480000e+00 -2.781249e-13
-9.470000e+00 -2.610905e-13
-9.460000e+00 -2.326376e-13
-9.450000e+00 -1.934117e-13
-9.440001e+00 -1.444554e-13
-9.430000e+00 -8.718707e-14
-9.420000e+00 -2.336673e-14
-9.410000e+00 4.495105e-14
-9.400000e+00 1.154760e-13
-9.390000e+00 1.857512e-13
-9.380000e+00 2.532298e-13
-9.370000e+00 3.153580e-13
-9.360001e+00 3.696614e-13
-9.350000e+00 4.138305e-13
-9.340000e+00 4.458057e-13
-9.330000e+00 4.638552e-13
-9.320000e+00 4.666456e-13
-9.309999e+00 4.533010e-13
-9.300000e+00 4.234497e-13
-9.290000e+00 3.772548e-13
-9.280000e+00 3.154288e-13
-9.270000e+00 2.392292e-13
-9.260000e+00 1.504379e-13
-9.250000e+00 5.132002e-14
-9.240000e+00 -5.543288e-14
-9.230000e+00 -1.667762e-13
-9.220000e+00 -2.793998e-13
-9.210000e+00 -3.898270e-13
-9.200000e+00 -4.945225e-13
-9.190001e+00 -5.900050e-13
-9.180000e+00 -6.729624e-13
-9.170000e+00 -7.403643e-13
-9.160000e+00 -7.895691e-13
-9.150000e+00 -8.184218e-13
-9.140000e+00 -8.253377e-13
-9.130000e+00 -8.093715e-13
-9.120000e+00 -7.702667e-13
-9.110001e+00 -7.084835e-13
-9.100000e+00 -6.252051e-13
-9.090000e+00 -5.223208e-13
-9.080000e+00 -4.023840e-13
-9.070000e+00 -2.685501e-13
-9.060000e+00 -1.244911e-13
-9.050000e+00 2.570711e-14
-9.040000e+00 1.776647e-13
-9.030000e+00 3.268391e-13
-9.020000e+00 4.686657e-13
-9.010000e+00 5.987015e-13
-9.000000e+00 7.127693e-13
-8.990000e+00 8.070954e-13
-8.980000e+00 8.784382e-13
-8.970000e+00 9.242021e-13
-8.960000e+00 9.425333e-13
-8.950000e+00 9.323931e-13
-8.940001e+00 8.936069e-13
-8.930000e+00 8.268870e-13
-8.920000e+00 7.338259e-13
-8.910000e+00 6.168626e-13
-8.900000e+00 4.792204e-13
-8.890000e+00 3.248186e-13
-8.880000e+00 1.581605e-13
-8.870000e+00 -1.579949e-14
-8.860001e+00 -1.918045e-13
-8.850000e+00 -3.644571e-13
-8.840000e+00 -5.283868e-13
-8.830000e+00 -6.784199e-13
-8.820000e+00 -8.097450e-13
-8.810000e+00 -9.180691e-13
-8.800000e+00 -9.997589e-13
-8.790000e+00 -1.051962e-12
-8.780000e+00 -1.072708e-12
-8.770000e+00 -1.060974e-12
-8.760000e+00 -1.016730e-12
-8.750000e+00 -9.409478e-13
-8.740000e+00 -8.355762e-13
-8.730000e+00 -7.034883e-13
-8.720000e+00 -5.483955e-13
-8.710000e+00 -3.747362e-13
-8.700000e+00 -1.875381e-13
-8.690001e+00 7.738672e-15
-8.680000e+00 2.053727e-13
-8.670000e+00 3.995629e-13
-8.660000e+00 5.846126e-13
-8.650000e+00 7.551117e-13
-8.640000e+00 9.061094e-13
-8.630000e+00 1.033273e-12
-8.620000e+00 1.133027e-12
-8.610001e+00 1.202664e-12
-8.600000e+00 1.240434e-12
-8.590000e+00 1.245596e-12
-8.580000e+00 1.218440e-12
-8.570000e+00 1.160267e-12
-8.560000e+00 1.073350e-12
-8.550000e+00 9.608456e-13
-8.540000e+00 8.266896e-13
-8.530000e+00 6.754571e-13
-8.520000e+00 5.122065e-13
-8.510000e+00 3.423059e-13
-8.500000e+00 1.712487e-13
-8.490000e+00 4.466597e-15
-8.480000e+00 -1.528555e-13
-8.470000e+00 -2.959554e-13
-8.460000e+00 -4.206539e-13
-8.450000e+00 -5.234950e-13
-8.440001e+00 -6.018594e-13
-8.430000e+00 -6.540490e-13
-8.420000e+00 -6.793387e-13
-8.410000e+00 -6.779929e-13
-8.400000e+00 -6.512473e-13
-8.390000e+00 -6.012561e-13
-8.380000e+00 -5.310063e-13
-8.370000e+00 -4.442021e-13
-8.360001e+00 -3.451234e-13
-8.350000e+00 -2.384642e-13
-8.340000e+00 -1.291555e-13
-8.330000e+00 -2.217967e-14
-8.320000e+00 7.761715e-14
-8.310000e+00 1.657077e-13
-8.300000e+00 2.380555e-13
-8.290000e+00 2.912681e-13
-8.280000e+00 3.227286e-13
-8.270000e+00 3.306976e-13
-8.260000e+00 3.143846e-13
-8.250000e+00 2.739839e-13
-8.240000e+00 2.106748e-13
-8.230000e+00 1.265864e-13
-8.220000e+00 2.472578e-14
-8.210000e+00 -9.112536e-14
-8.200000e+00 -2.165433e-13
-8.190001e+00 -3.466193e-13
-8.180000e+00 -4.761361e-13
-8.170000e+00 -5.997560e-13
-8.160000e+00 -7.122152e-13
-8.150000e+00 -8.085173e-13
-8.140000e+00 -8.841181e-13
-8.130000e+00 -9.350954e-13
-8.120000e+00 -9.582980e-13
-8.110001e+00 -9.514684e-13
-8.100000e+00 -9.133328e-13
-8.090000e+00 -8.436580e-13
-8.080000e+00 -7.432710e-13
-8.070000e+00 -6.140400e-13
-8.060000e+00 -4.588192e-13
-8.050000e+00 -2.813580e-13
-8.040000e+00 -8.617681e-14
-8.030000e+00 1.215840e-13
-8.020000e+00 3.363381e-13
-8.010000e+00 5.522440e-13
-8.000000e+00 7.634052e-13
-7.990000e+00 9.640732e-13
-7.980000e+00 1.148845e-12
-7.970000e+00 1.312850e-12
-7.960000e+00 1.451917e-12
-7.950000e+00 1.562715e-12
-7.940000e+00 1.642869e-12
-7.930000e+00 1.691035e-12
-7.920000e+00 1.706947e-12
-7.910000e+00 1.691413e-12
-7.900000e+00 1.646287e-12
-7.890000e+00 1.574389e-12
-7.880000e+00 1.479405e-12
-7.870000e+00 1.365746e-12
-7.860000e+00 1.238381e-12
-7.850000e+00 1.102662e-12
-7.840000e+00 9.641210e-13
-7.830000e+00 8.282729e-13
-7.820000e+00 7.004148e-13
-7.810000e+00 5.854358e-13
-7.800000e+00 4.876441e-13
-7.790000e+00 4.106152e-13
-7.780000e+00 3.570700e-13
-7.770000e+00 3.287849e-13
-7.760000e+00 3.265382e-13
-7.750000e+00 3.500947e-13
-7.740000e+00 3.982295e-13
-7.730000e+00 4.687881e-13
-7.720000e+00 5.587831e-13
-7.710000e+00 6.645219e-13
-7.700000e+00 7.817607e-13
-7.690000e+00 9.058794e-13
-7.680000e+00 1.032070e-12
-7.670000e+00 1.155533e-12
-7.660000e+00 1.271669e-12
-7.650000e+00 1.376267e-12
-7.640000e+00 1.465671e-12
-7.630000e+00 1.536930e-12
-7.620000e+00 1.587914e-12
-7.610000e+00 1.617400e-12
-7.600000e+00 1.625124e-12
-7.590000e+00 1.611786e-12
-7.580000e+00 1.579024e-12
-7.570000e+00 1.529347e-12
-7.560000e+00 1.466031e-12
-7.550000e+00 1.392986e-12
-7.540000e+00 1.314593e-12
-7.530000e+00 1.235523e-12
-7.520000e+00 1.160541e-12
-7.510000e+00 1.094305e-12
-7.500000e+00 1.041171e-12
-7.490000e+00 1.005001e-12
-7.480000e+00 9.889969e-13
-7.470000e+00 9.955513e-13
-7.460000e+00 1.026138e-12
-7.450000e+00 1.081235e-12
-7.440000e+00 1.160282e-12
-7.430000e+00 1.261690e-12
-7.420000e+00 1.382886e-12
-7.410000e+00 1.520401e-12
-7.400000e+00 1.669994e-12
-7.390000e+00 1.826817e-12
-7.380000e+00 1.985597e-12
-7.370000e+00 2.140850e-12
-7.360000e+00 2.287102e-12
-7.350000e+00 2.419117e-12
-7.340000e+00 2.532119e-12
-7.330000e+00 2.622004e-12
-7.320000e+00 2.685526e-12
-7.310000e+00 2.720461e-12
-7.300000e+00 2.725725e-12
-7.290000e+00 2.701459e-12
-7.280000e+00 2.649060e-12
-7.270000e+00 2.571176e-12
-7.260000e+00 2.471636e-12
-7.250000e+00 2.355346e-12
-7.240000e+00 2.228136e-12
-7.230000e+00 2.096564e-12
-7.220000e+00 1.967692e-12
-7.210000e+00 1.848838e-12
-7.200000e+00 1.747303e-12
-7.190000e+00 1.670103e-12
-7.180000e+00 1.623699e-12
-7.170000e+00 1.613737e-12
-7.160000e+00 1.644821e-12
-7.150000e+00 1.720313e-12
-7.140000e+00 1.842175e-12
-7.130000e+00 2.010858e-12
-7.120000e+00 2.225248e-12
-7.110000e+00 2.482663e-12
-7.100000e+00 2.778910e-12
-7.090000e+00 3.108398e-12
-7.080000e+00 3.464305e-12
-7.070000e+00 3.838786e-12
-7.060000e+00 4.223237e-12
-7.050000e+00 4.608574e-12
-7.040000e+00 4.985549e-12
-7.030000e+00 5.345069e-12
-7.020000e+00 5.678515e-12
-7.010000e+00 5.978062e-12
-7.000000e+00 6.236955e-12
-6.990000e+00 6.449768e-12
-6.980000e+00 6.612616e-12
-6.970000e+00 6.723305e-12
-6.960000e+00 6.781441e-12
-6.950000e+00 6.788459e-12
-6.940000e+00 6.747600e-12
-6.930000e+00 6.663814e-12
-6.920000e+00 6.543604e-12
-6.910000e+00 6.394817e-12
-6.900000e+00 6.226374e-12
-6.890000e+00 6.047966e-12
-6.880000e+00 5.869719e-12
-6.870000e+00 5.701833e-12
-6.860000e+00 5.554224e-12
-6.850000e+00 5.436163e-12
-6.840000e+00 5.355938e-12
-6.830000e+00 5.320556e-12
-6.820000e+00 5.335470e-12
-6.810000e+00 5.404381e-12
-6.800000e+00 5.529087e-12
-6.790000e+00 5.709401e-12
-6.780000e+00 5.943152e-12
-6.770000e+00 6.226242e-12
-6.760000e+00 6.552788e-12
-6.750000e+00 6.915322e-12
-6.740000e+00 7.305058e-12
-6.730000e+00 7.712200e-12
-6.720000e+00 8.126305e-12
-6.710000e+00 8.536665e-12
-6.700000e+00 8.932701e-12
-6.690000e+00 9.304358e-12
-6.680000e+00 9.642502e-12
-6.670000e+00 9.939259e-12
-6.660000e+00 1.018833e-11
-6.650000e+00 1.038527e-11
-6.640000e+00 1.052765e-11
-6.630000e+00 1.061521e-11
-6.620000e+00 1.064987e-11
-6.610000e+00 1.063576e-11
-6.600000e+00 1.057902e-11
-6.590000e+00 1.048769e-11
-6.580000e+00 1.037140e-11
-6.570000e+00 1.024108e-11
-6.560000e+00 1.010857e-11
-6.550000e+00 9.986205e-12
-6.540000e+00 9.886398e-12
-6.530000e+00 9.821184e-12
-6.520000e+00 9.801792e-12
-6.510000e+00 9.838234e-12
-6.500000e+00 9.938920e-12
-6.490000e+00 1.011035e-11
-6.480000e+00 1.035686e-11
-6.470000e+00 1.068041e-11
-6.460000e+00 1.108051e-11
-6.450000e+00 1.155422e-11
-6.440000e+00 1.209616e-11
-6.430000e+00 1.269874e-11
-6.420000e+00 1.335236e-11
-6.410000e+00 1.404571e-11
-6.400000e+00 1.476620e-11
-6.390000e+00 1.550031e-11
-6.380000e+00 1.623414e-11
-6.370000e+00 1.695382e-11
-6.360000e+00 1.764601e-11
-6.350000e+00 1.829841e-11
-6.340000e+00 1.890016e-11
-6.330000e+00 1.944222e-11
-6.320000e+00 1.991777e-11
-6.310000e+00 2.032237e-11
-6.300000e+00 2.065422e-11
-6.290000e+00 2.091421e-11
-6.280000e+00 2.110591e-11
-6.270000e+00 2.123544e-11
-6.260000e+00 2.131137e-11
-6.250000e+00 2.134433e-11
-6.240000e+00 2.134672e-11
-6.230000e+00 2.133230e-11
-6.220000e+00 2.131567e-11
-6.210000e+00 2.131186e-11
-6.200000e+00 2.133569e-11
-6.190000e+00 2.140140e-11
-6.180000e+00 2.152203e-11
-6.170000e+00 2.170905e-11
-6.160000e+00 2.197193e-11
-6.150000e+00 2.231779e-11
-6.140000e+00 2.275118e-11
-6.130000e+00 2.327388e-11
-6.120000e+00 2.388486e-11
-6.110000e+00 2.458029e-11
-6.100000e+00 2.535368e-11
-6.090000e+00 2.619608e-11
-6.080000e+00 2.709640e-11
-6.070000e+00 2.804177e-11
-6.060000e+00 2.901802e-11
-6.050000e+00 3.001011e-11
-6.040000e+00 3.100269e-11
-6.030000e+00 3.198064e-11
-6.020000e+00 3.292952e-11
-6.010000e+00 3.383617e-11
-6.000000e+00 3.468908e-11
-5.990000e+00 3.547883e-11
-5.980000e+00 3.619839e-11
-5.970000e+00 3.684339e-11
-5.960000e+00 3.741225e-11
-5.950000e+00 3.790622e-11
-5.940000e+00 3.832938e-11
-5.930000e+00 3.868844e-11
-5.920000e+00 3.899256e-11
-5.910000e+00 3.925298e-11
-5.900000e+00 3.948267e-11
-5.890000e+00 3.969590e-11
-5.880000e+00 3.990768e-11
-5.870000e+00 4.013333e-11
-5.860000e+00 4.038791e-11
-5.850000e+00 4.068572e-11
-5.840000e+00 4.103984e-11
-5.830000e+00 4.146168e-11
-5.820000e+00 4.196062e-11
-5.810000e+00 4.254369e-11
-5.800000e+00 4.321539e-11
-5.790000e+00 4.397755e-11
-5.780000e+00 4.482929e-11
-5.770000e+00 4.576709e-11
-5.760000e+00 4.678498e-11
-5.750000e+00 4.787473e-11
-5.740000e+00 4.902622e-11
-5.730000e+00 5.022777e-11
-5.720000e+00 5.146663e-11
-5.710000e+00 5.272940e-11
-5.700000e+00 5.400256e-11
-5.690000e+00 5.527288e-11
-5.680000e+00 5.652799e-11
-5.670000e+00 5.775673e-11
-5.660000e+00 5.894957e-11
-5.650000e+00 6.009891e-11
-5.640000e+00 6.119937e-11
-5.630000e+00 6.224789e-11
-5.620000e+00 6.324387e-11
-5.610000e+00 6.418913e-11
-5.600000e+00 6.508785e-11
-5.590000e+00 6.594632e-11
-5.580000e+00 6.677275e-11
-5.570000e+00 6.757692e-11
-5.560000e+00 6.836982e-11
-5.550000e+00 6.916325e-11
-5.540000e+00 6.996936e-11
-5.530000e+00 7.080019e-11
-5.520000e+00 7.166732e-11
-5.510000e+00 7.258137e-11
-5.500000e+00 7.355170e-11
-5.490000e+00 7.458605e-11
-5.480000e+00 7.569032e-11
-5.470000e+00 7.686838e-11
-5.460000e+00 7.812197e-11
-5.450000e+00 7.945068e-11
-5.440000e+00 8.085199e-11
-5.430000e+00 8.232148e-11
-5.420000e+00 8.385297e-11
-5.410000e+00 8.543879e-11
-5.400000e+00 8.707016e-11
-5.390000e+00 8.873750e-11
-5.380000e+00 9.043087e-11
-5.370000e+00 9.214030e-11
-5.360000e+00 9.385623e-11
-5.350000e+00 9.556989e-11
-5.340000e+00 9.727359e-11
-5.330000e+00 9.896107e-11
-5.320000e+00 1.006277e-10
-5.310000e+00 1.022707e-10
-5.300000e+00 1.038890e-10
-5.290000e+00 1.054839e-10
-5.280000e+00 1.070580e-10
-5.270000e+00 1.086162e-10
-5.260000e+00 1.101647e-10
-5.250000e+00 1.117111e-10
-5.240000e+00 1.132640e-10
-5.230000e+00 1.148328e-10
-5.220000e+00 1.164272e-10
-5.210000e+00 1.180570e-10
-5.200000e+00 1.197314e-10
-5.190000e+00 1.214590e-10
-5.180000e+00 1.232476e-10
-5.170000e+00 1.251034e-10
-5.160000e+00 1.270312e-10
-5.150000e+00 1.290341e-10
-5.140000e+00 1.311134e-10
-5.130000e+00 1.332688e-10
-5.120000e+00 1.354979e-10
-5.110000e+00 1.377970e-10
-5.100000e+00 1.401606e-10
-5.090000e+00 1.425821e-10
-5.080000e+00 1.450539e-10
-5.070000e+00 1.475677e-10
-5.060000e+00 1.501149e-10
-5.050000e+00 1.526866e-10
-5.040000e+00 1.552745e-10
-5.030000e+00 1.578708e-10
-5.020000e+00 1.604686e-10
-5.010000e+00 1.630620e-10
-5.000000e+00 1.656468e-10
-4.990000e+00 1.682200e-10
-4.980000e+00 1.707803e-10
-4.970000e+00 1.733281e-10
-4.960000e+00 1.758652e-10
-4.950000e+00 1.783951e-10
-4.940000e+00 1.809225e-10
-4.930000e+00 1.834534e-10
-4.920000e+00 1.859946e-10
-4.910000e+00 1.885537e-10
-4.900000e+00 1.911386e-10
-4.890000e+00 1.937572e-10
-4.880000e+00 1.964174e-10
-4.870000e+00 1.991266e-10
-4.860000e+00 2.018914e-10
-4.850000e+00 2.047176e-10
-4.840000e+00 2.076100e-10
-4.830000e+00 2.105721e-10
-4.820000e+00 2.136062e-10
-4.810000e+00 2.167135e-10
-4.800000e+00 2.198940e-10
-4.790000e+00 2.231464e-10
-4.780000e+00 2.264689e-10
-4.770000e+00 2.298584e-10
-4.760000e+00 2.333119e-10
-4.750000e+00 2.368257e-10
-4.740000e+00 2.403960e-10
-4.730000e+00 2.440196e-10
-4.720000e+00 2.476933e-10
-4.710000e+00 2.514148e-10
-4.700000e+00 2.551825e-10
-4.690000e+00 2.589957e-10
-4.680000e+00 2.628548e-10
-4.670000e+00 2.667612e-10
-4.660000e+00 2.707174e-10
-4.650000e+00 2.747266e-10
-4.640000e+00 2.787933e-10
-4.630000e+00 2.829224e-10
-4.620000e+00 2.871192e-10
-4.610000e+00 2.913894e-10
-4.600000e+00 2.957385e-10
-4.590000e+00 3.001719e-10
-4.580000e+00 3.046944e-10
-4.570000e+00 3.093099e-10
-4.560000e+00 3.140214e-10
-4.550000e+00 3.188305e-10
-4.540000e+00 3.237376e-10
-4.530000e+00 3.287416e-10
-4.520000e+00 3.338398e-10
-4.510000e+00 3.390281e-10
-4.500000e+00 3.443011e-10
-4.490000e+00 3.496518e-10
-4.480000e+00 3.550725e-10
-4.470000e+00 3.605545e-10
-4.460000e+00 3.660885e-10
-4.450000e+00 3.716652e-10
-4.440000e+00 3.772753e-10
-4.430000e+00 3.829099e-10
-4.420000e+00 3.885609e-10
-4.410000e+00 3.942216e-10
-4.400000e+00 3.998863e-10
-4.390000e+00 4.055513e-10
-4.380000e+00 4.112145e-10
-4.370000e+00 4.168760e-10
-4.360000e+00 4.225379e-10
-4.350000e+00 4.282042e-10
-4.340000e+00 4.338811e-10
-4.330000e+00 4.395766e-10
-4.320000e+00 4.453001e-10
-4.310000e+00 4.510627e-10
-4.300000e+00 4.568765e-10
-4.290000e+00 4.627540e-10
-4.280000e+00 4.687084e-10
-4.270000e+00 4.747527e-10
-4.260000e+00 4.808995e-10
-4.250000e+00 4.871606e-10
-4.240000e+00 4.935466e-10
-4.230000e+00 5.000667e-10
-4.220000e+00 5.067283e-10
-4.210000e+00 5.135369e-10
-4.200000e+00 5.204963e-10
-4.190000e+00 5.276077e-10
-4.180000e+00 5.348708e-10
-4.170000e+00 5.422831e-10
-4.160000e+00 5.498402e-10
-4.150000e+00 5.575365e-10
-4.140000e+00 5.653648e-10
-4.130000e+00 5.733172e-10
-4.120000e+00 5.813848e-10
-4.110000e+00 5.895589e-10
-4.100000e+00 5.978307e-10
-4.090000e+00 6.061920e-10
-4.080000e+00 6.146352e-10
-4.070000e+00 6.231539e-10
-4.060000e+00 6.317430e-10
-4.050000e+00 6.403990e-10
-4.040000e+00 6.491200e-10
-4.030000e+00 6.579057e-10
-4.020000e+00 6.667575e-10
-4.010000e+00 6.756784e-10
-4.000000e+00 6.846729e-10
-3.990000e+00 6.937464e-10
-3.980000e+00 7.029055e-10
-3.970000e+00 7.121576e-10
-3.960000e+00 7.215099e-10
-3.950000e+00 7.309698e-10
-3.940001e+00 7.405448e-10
-3.930000e+00 7.502411e-10
-3.920000e+00 7.600642e-10
-3.910000e+00 7.700183e-10
-3.900001e+00 7.801063e-10
-3.890000e+00 7.903293e-10
-3.880000e+00 8.006871e-10
-3.870000e+00 8.111777e-10
-3.860001e+00 8.217977e-10
-3.850000e+00 8.325418e-10
-3.840000e+00 8.434042e-10
-3.830000e+00 8.543777e-10
-3.820001e+00 8.654547e-10
-3.810000e+00 8.766271e-10
-3.800000e+00 8.878871e-10
-3.790000e+00 8.992272e-10
-3.780000e+00 9.106410e-10
-3.770000e+00 9.221228e-10
-3.760000e+00 9.336689e-10
-3.750000e+00 9.452771e-10
-3.740000e+00 9.569473e-10
-3.730000e+00 9.686810e-10
-3.720000e+00 9.804827e-10
-3.710000e+00 9.923584e-10
-3.700000e+00 1.004317e-09
-3.690001e+00 1.016367e-09
-3.680000e+00 1.028521e-09
-3.670000e+00 1.040792e-09
-3.660000e+00 1.053194e-09
-3.650001e+00 1.065741e-09
-3.640000e+00 1.078448e-09
-3.630000e+00 1.091328e-09
-3.620000e+00 1.104395e-09
-3.610001e+00 1.117662e-09
-3.600000e+00 1.131138e-09
-3.590000e+00 1.144832e-09
-3.580000e+00 1.158750e-09
-3.570001e+00 1.172896e-09
-3.560000e+00 1.187271e-09
-3.550000e+00 1.201874e-09
-3.540000e+00 1.216701e-09
-3.530000e+00 1.231745e-09
-3.520000e+00 1.246998e-09
-3.510000e+00 1.262450e-09
-3.500000e+00 1.278088e-09
-3.490000e+00 1.293899e-09
-3.480000e+00 1.309869e-09
-3.470000e+00 1.325984e-09
-3.460000e+00 1.342230e-09
-3.450000e+00 1.358592e-09
-3.440001e+00 1.375060e-09
-3.430000e+00 1.391620e-09
-3.420000e+00 1.408265e-09
-3.410000e+00 1.424987e-09
-3.400001e+00 1.441780e-09
-3.390000e+00 1.458642e-09
-3.380000e+00 1.475572e-09
-3.370000e+00 1.492572e-09
-3.360001e+00 1.509647e-09
-3.350000e+00 1.526801e-09
-3.340000e+00 1.544044e-09
-3.330000e+00 1.561384e-09
-3.320001e+00 1.578831e-09
-3.310000e+00 1.596397e-09
-3.300000e+00 1.614092e-09
-3.290000e+00 1.631929e-09
-3.280000e+00 1.649919e-09
-3.270000e+00 1.668071e-09
-3.260000e+00 1.686395e-09
-3.250000e+00 1.704899e-09
-3.240000e+00 1.723590e-09
-3.230000e+00 1.742474e-09
-3.220000e+00 1.761554e-09
-3.210000e+00 1.780832e-09
-3.200000e+00 1.800309e-09
-3.190001e+00 1.819986e-09
-3.180000e+00 1.839860e-09
-3.170000e+00 1.859930e-09
-3.160000e+00 1.880193e-09
-3.150001e+00 1.900646e-09
-3.140000e+00 1.921287e-09
-3.130000e+00 1.942112e-09
-3.120000e+00 1.963119e-09
-3.110001e+00 1.984307e-09
-3.100000e+00 2.005676e-09
-3.090000e+00 2.027226e-09
-3.080000e+00 2.048959e-09
-3.070001e+00 2.070876e-09
-3.060000e+00 2.092981e-09
-3.050000e+00 2.115279e-09
-3.040000e+00 2.137774e-09
-3.030000e+00 2.160472e-09
-3.020000e+00 2.183377e-09
-3.010000e+00 2.206495e-09
-3.000000e+00 2.229832e-09
-2.990000e+00 2.253390e-09
-2.980000e+00 2.277174e-09
-2.970000e+00 2.301184e-09
-2.960000e+00 2.325421e-09
-2.950000e+00 2.349885e-09
-2.940001e+00 2.374573e-09
-2.930000e+00 2.399480e-09
-2.920000e+00 2.424599e-09
-2.910000e+00 2.449925e-09
-2.900001e+00 2.475447e-09
-2.890000e+00 2.501155e-09
-2.880000e+00 2.527039e-09
-2.870000e+00 2.553087e-09
-2.860001e+00 2.579288e-09
-2.850000e+00 2.605631e-09
-2.840000e+00 2.632105e-09
-2.830000e+00 2.658700e-09
-2.820001e+00 2.685409e-09
-2.810000e+00 2.712225e-09
-2.800000e+00 2.739143e-09
-2.790000e+00 2.766161e-09
-2.780000e+00 2.793278e-09
-2.770000e+00 2.820497e-09
-2.760000e+00 2.847821e-09
-2.750000e+00 2.875257e-09
-2.740000e+00 2.902812e-09
-2.730000e+00 2.930496e-09
-2.720000e+00 2.958320e-09
-2.710000e+00 2.986295e-09
-2.700000e+00 3.014433e-09
-2.690001e+00 3.042747e-09
-2.680000e+00 3.071247e-09
-2.670000e+00 3.099946e-09
-2.660000e+00 3.128851e-09
-2.650001e+00 3.157971e-09
-2.640000e+00 3.187312e-09
-2.630000e+00 3.216878e-09
-2.620000e+00 3.246671e-09
-2.610001e+00 3.276691e-09
-2.600000e+00 3.306934e-09
-2.590000e+00 3.337396e-09
-2.580000e+00 3.368071e-09
-2.570001e+00 3.398951e-09
-2.560000e+00 3.430026e-09
-2.550000e+00 3.461286e-09
-2.540000e+00 3.492721e-09
-2.530001e+00 3.524321e-09
-2.520000e+00 3.556075e-09
-2.510000e+00 3.587974e-09
-2.500000e+00 3.620012e-09
-2.490000e+00 3.652181e-09
-2.480000e+00 3.684478e-09
-2.470000e+00 3.716899e-09
-2.460000e+00 3.749447e-09
-2.450000e+00 3.782121e-09
-2.440001e+00 3.814927e-09
-2.430000e+00 3.847870e-09
-2.420000e+00 3.880957e-09
-2.410000e+00 3.914199e-09
-2.400001e+00 3.947603e-09
-2.390000e+00 3.981181e-09
-2.380000e+00 4.014941e-09
-2.370000e+00 4.048893e-09
-2.360001e+00 4.083044e-09
-2.350000e+00 4.117400e-09
-2.340000e+00 4.151967e-09
-2.330000e+00 4.186745e-09
-2.320001e+00 4.221735e-09
-2.310000e+00 4.256932e-09
-2.300000e+00 4.292329e-09
-2.290000e+00 4.327918e-09
-2.280001e+00 4.363686e-09
-2.270000e+00 4.399620e-09
-2.260000e+00 4.435703e-09
-2.250000e+00 4.471918e-09
-2.240000e+00 4.508244e-09
-2.230000e+00 4.544663e-09
-2.220000e+00 4.581155e-09
-2.210000e+00 4.617701e-09
-2.200000e+00 4.654286e-09
-2.190001e+00 4.690893e-09
-2.180000e+00 4.727508e-09
-2.170000e+00 4.764123e-09
-2.160000e+00 4.800731e-09
-2.150001e+00 4.837327e-09
-2.140000e+00 4.873913e-09
-2.130000e+00 4.910492e-09
-2.120000e+00 4.947071e-09
-2.110001e+00 4.983660e-09
-2.100000e+00 5.020272e-09
-2.090000e+00 5.056922e-09
-2.080000e+00 5.093626e-09
-2.070001e+00 5.130401e-09
-2.060000e+00 5.167266e-09
-2.050000e+00 5.204237e-09
-2.040000e+00 5.241330e-09
-2.030001e+00 5.278560e-09
-2.020000e+00 5.315937e-09
-2.010000e+00 5.353469e-09
-2.000000e+00 5.391162e-09
-1.990000e+00 5.429016e-09
-1.980000e+00 5.467029e-09
-1.970000e+00 5.505192e-09
-1.960000e+00 5.543494e-09
-1.950000e+00 5.581921e-09
-1.940001e+00 5.620452e-09
-1.930000e+00 5.659068e-09
-1.920000e+00 5.697745e-09
-1.910000e+00 5.736456e-09
-1.900001e+00 5.775176e-09
-1.890000e+00 5.813879e-09
-1.880000e+00 5.852538e-09
-1.870000e+00 5.891130e-09
-1.860001e+00 5.929633e-09
-1.850000e+00 5.968029e-09
-1.840000e+00 6.006301e-09
-1.830000e+00 6.044438e-09
-1.820001e+00 6.082431e-09
-1.810000e+00 6.120277e-09
-1.800000e+00 6.157978e-09
-1.790000e+00 6.195537e-09
-1.780001e+00 6.232962e-09
-1.770000e+00 6.270265e-09
-1.760000e+00 6.307459e-09
-1.750000e+00 6.344560e-09
-1.740000e+00 6.381585e-09
-1.730000e+00 6.418550e-09
-1.720000e+00 6.455471e-09
-1.710000e+00 6.492363e-09
-1.700000e+00 6.529238e-09
-1.690001e+00 6.566105e-09
-1.680000e+00 6.602969e-09
-1.670000e+00 6.639834e-09
-1.660000e+00 6.676696e-09
-1.650001e+00 6.713547e-09
-1.640000e+00 6.750375e-09
-1.630000e+00 6.787164e-09
-1.620000e+00 6.823893e-09
-1.610001e+00 6.860537e-09
-1.600000e+00 6.897070e-09
-1.590000e+00 6.933462e-09
-1.580000e+00 6.969681e-09
-1.570001e+00 7.005695e-09
-1.560000e+00 7.041473e-09
-1.550000e+00 7.076983e-09
-1.540000e+00 7.112197e-09
-1.530001e+00 7.147090e-09
-1.520000e+00 7.181640e-09
-1.510000e+00 7.215828e-09
-1.500000e+00 7.249640e-09
-1.490000e+00 7.283068e-09
-1.480000e+00 7.316108e-09
-1.470000e+00 7.348760e-09
-1.460000e+00 7.381031e-09
-1.450000e+00 7.412930e-09
-1.440001e+00 7.444470e-09
-1.430000e+00 7.475669e-09
-1.420000e+00 7.506542e-09
-1.410000e+00 7.537110e-09
-1.400001e+00 7.567394e-09
-1.390000e+00 7.597410e-09
-1.380000e+00 7.627176e-09
-1.370000e+00 7.656708e-09
-1.360001e+00 7.686015e-09
-1.350000e+00 7.715105e-09
-1.340000e+00 7.743981e-09
-1.330000e+00 7.772640e-09
-1.320001e+00 7.801074e-09
-1.310000e+00 7.829270e-09
-1.300000e+00 7.857209e-09
-1.290000e+00 7.884869e-09
-1.280001e+00 7.912220e-09
-1.270000e+00 7.939233e-09
-1.260000e+00 7.965873e-09
-1.250000e+00 7.992105e-09
-1.240000e+00 8.017889e-09
-1.230000e+00 8.043189e-09
-1.220000e+00 8.067968e-09
-1.210000e+00 8.092188e-09
-1.200000e+00 8.115818e-09
-1.190001e+00 8.138829e-09
-1.180000e+00 8.161193e-09
-1.170000e+00 8.182887e-09
-1.160000e+00 8.203895e-09
-1.150001e+00 8.224205e-09
-1.140000e+00 8.243809e-09
-1.130000e+00 8.262703e-09
-1.120000e+00 8.280888e-09
-1.110001e+00 8.298366e-09
-1.100000e+00 8.315147e-09
-1.090000e+00 8.331238e-09
-1.080000e+00 8.346650e-09
-1.070001e+00 8.361392e-09
-1.060000e+00 8.375478e-09
-1.050000e+00 8.388914e-09
-1.040000e+00 8.401709e-09
-1.030001e+00 8.413864e-09
-1.020000e+00 8.425382e-09
-1.010000e+00 8.436259e-09
-1.000000e+00 8.446487e-09
-9.899998e-01 8.456055e-09
-9.800005e-01 8.464948e-09