-1.200000e+01 0.000000e+00
-1.199000e+01 0.000000e+00
-1.198000e+01 0.000000e+00
-1.197000e+01 0.000000e+00
-1.196000e+01 1.008779e-29
-1.195000e+01 -2.511029e-26
-1.194000e+01 -2.709606e-25
-1.193000e+01 -1.586387e-24
-1.192000e+01 -6.678300e-24
-1.191000e+01 -2.260977e-23
-1.190000e+01 -6.532607e-23
-1.189000e+01 -1.670267e-22
-1.188000e+01 -3.871400e-22
-1.187000e+01 -8.273842e-22
-1.186000e+01 -1.650862e-21
-1.185000e+01 -3.104294e-21
-1.184000e+01 -5.541358e-21
-1.183000e+01 -9.443667e-21
-1.182000e+01 -1.543434e-20
-1.181000e+01 -2.427742e-20
-1.180000e+01 -3.685479e-20
-1.179000e+01 -5.411125e-20
-1.178000e+01 -7.695728e-20
-1.177000e+01 -1.061198e-19
-1.176000e+01 -1.419322e-19
-1.175000e+01 -1.840566e-19
-1.174000e+01 -2.311385e-19
-1.173000e+01 -2.803938e-19
-1.172000e+01 -3.271419e-19
-1.171000e+01 -3.643016e-19
-1.170000e+01 -3.818785e-19
-1.169000e+01 -3.664814e-19
-1.168000e+01 -3.009167e-19
-1.167000e+01 -1.639154e-19
-1.166000e+01 6.994284e-20
-1.165000e+01 4.300392e-19
-1.164000e+01 9.491907e-19
-1.163000e+01 1.662725e-18
-1.162000e+01 2.607094e-18
-1.161000e+01 3.817990e-18
-1.160000e+01 5.327929e-18
-1.159000e+01 7.163324e-18
-1.158000e+01 9.341056e-18
-1.157000e+01 1.186465e-17
-1.156000e+01 1.472011e-17
-1.155000e+01 1.787170e-17
-1.154000e+01 2.125762e-17
-1.153000e+01 2.478614e-17
-1.152000e+01 2.833221e-17
-1.151000e+01 3.173492e-17
-1.150000e+01 3.479617e-17
-1.149000e+01 3.728087e-17
-1.148000e+01 3.891890e-17
-1.147000e+01 3.940914e-17
-1.146000e+01 3.842586e-17
-1.145000e+01 3.562754e-17
-1.144000e+01 3.066817e-17
-1.143000e+01 2.321106e-17
-1.142000e+01 1.294497e-17
-1.141000e+01 -3.978323e-19
-1.140000e+01 -1.702194e-17
-1.139000e+01 -3.704823e-17
-1.138000e+01 -6.049313e-17
-1.137000e+01 -8.724849e-17
-1.136000e+01 -1.170631e-16
-1.135000e+01 -1.495270e-16
-1.134000e+01 -1.840594e-16
-1.133000e+01 -2.199014e-16
-1.132000e+01 -2.561150e-16
-1.131000e+01 -2.915886e-16
-1.130000e+01 -3.250503e-16
-1.129000e+01 -3.550892e-16
-1.128000e+01 -3.801856e-16
-1.127000e+01 -3.987494e-16
-1.126000e+01 -4.091667e-16
-1.125000e+01 -4.098541e-16
-1.124000e+01 -3.993195e-16
-1.123000e+01 -3.762266e-16
-1.122000e+01 -3.394640e-16
-1.121000e+01 -2.882135e-16
-1.120000e+01 -2.220176e-16
-1.119000e+01 -1.408415e-16
-1.118000e+01 -4.512799e-17
-1.117000e+01 6.415817e-17
-1.116000e+01 1.854996e-16
-1.115000e+01 3.168113e-16
-1.114000e+01 4.554449e-16
-1.113000e+01 5.982123e-16
-1.112000e+01 7.414320e-16
-1.111000e+01 8.809970e-16
-1.110000e+01 1.012465e-15
-1.109000e+01 1.131172e-15
-1.108000e+01 1.232361e-15
-1.107000e+01 1.311330e-15
-1.106000e+01 1.363595e-15
-1.105000e+01 1.385055e-15
-1.104000e+01 1.372167e-15
-1.103000e+01 1.322114e-15
-1.102000e+01 1.232963e-15
-1.101000e+01 1.103813e-15
-1.100000e+01 9.349131e-16
-1.099000e+01 7.277583e-16
-1.098000e+01 4.851464e-16
-1.097000e+01 2.111989e-16
-1.096000e+01 -8.866376e-17
-1.095000e+01 -4.077916e-16
-1.094000e+01 -7.384236e-16
-1.093000e+01 -1.071852e-15
-1.092000e+01 -1.398632e-15
-1.091000e+01 -1.708834e-15
-1.090000e+01 -1.992328e-15
-1.089000e+01 -2.239100e-15
-1.088000e+01 -2.439586e-15
-1.087000e+01 -2.585011e-15
-1.086000e+01 -2.667735e-15
-1.085000e+01 -2.681571e-15
-1.084000e+01 -2.622088e-15
-1.083000e+01 -2.486867e-15
-1.082000e+01 -2.275708e-15
-1.081000e+01 -1.990773e-15
-1.080000e+01 -1.636665e-15
-1.079000e+01 -1.220416e-15
-1.078000e+01 -7.514016e-16
-1.077000e+01 -2.411706e-16
-1.076000e+01 2.968164e-16
-1.075000e+01 8.475244e-16
-1.074000e+01 1.394754e-15
-1.073000e+01 1.921618e-15
-1.072000e+01 2.411063e-15
-1.071000e+01 2.846427e-15
-1.070000e+01 3.212018e-15
-1.069000e+01 3.493678e-15
-1.068000e+01 3.679332e-15
-1.067000e+01 3.759488e-15
-1.066000e+01 3.727671e-15
-1.065000e+01 3.580777e-15
-1.064000e+01 3.319316e-15
-1.063000e+01 2.947552e-15
-1.062000e+01 2.473501e-15
-1.061000e+01 1.908811e-15
-1.060000e+01 1.268499e-15
-1.059000e+01 5.705535e-16
-1.058000e+01 -1.645771e-16
-1.057000e+01 -9.146160e-16
-1.056000e+01 -1.656177e-15
-1.055000e+01 -2.365554e-15
-1.054000e+01 -3.019555e-15
-1.053000e+01 -3.596349e-15
-1.052000e+01 -4.076300e-15
-1.051000e+01 -4.442744e-15
-1.050000e+01 -4.682687e-15
-1.049000e+01 -4.787401e-15
-1.048000e+01 -4.752864e-15
-1.047000e+01 -4.580043e-15
-1.046000e+01 -4.275003e-15
-1.045000e+01 -3.848807e-15
-1.044000e+01 -3.317223e-15
-1.043000e+01 -2.700234e-15
-1.042000e+01 -2.021353e-15
-1.041000e+01 -1.306775e-15
-1.040000e+01 -5.843745e-16
-1.039000e+01 1.173995e-16
-1.038000e+01 7.707109e-16
-1.037000e+01 1.349549e-15
-1.036000e+01 1.830927e-15
-1.035000e+01 2.196006e-15
-1.034000e+01 2.431115e-15
-1.033000e+01 2.528591e-15
-1.032000e+01 2.487423e-15
-1.031000e+01 2.313643e-15
-1.030000e+01 2.020439e-15
-1.029000e+01 1.627973e-15
-1.028000e+01 1.162886e-15
-1.027000e+01 6.574947e-16
-1.026000e+01 1.486918e-16
-1.025000e+01 -3.234221e-16
-1.024000e+01 -7.171398e-16
-1.023000e+01 -9.909307e-16
-1.022000e+01 -1.105348e-15
-1.021000e+01 -1.024987e-15
-1.020000e+01 -7.204280e-16
-1.019000e+01 -1.700690e-16
-1.018000e+01 6.382113e-16
-1.017000e+01 1.705654e-15
-1.016000e+01 3.021554e-15
-1.015000e+01 4.562588e-15
-1.014000e+01 6.292593e-15
-1.013000e+01 8.162846e-15
-1.012000e+01 1.011285e-14
-1.011000e+01 1.207164e-14
-1.010000e+01 1.395962e-14
-1.009000e+01 1.569084e-14
-1.008000e+01 1.717574e-14
-1.007000e+01 1.832420e-14
-1.006000e+01 1.904887e-14
-1.005000e+01 1.926869e-14
-1.004000e+01 1.891234e-14
-1.003000e+01 1.792172e-14
-1.002000e+01 1.625517e-14
-1.001000e+01 1.389024e-14
-1.000000e+01 1.082615e-14
-9.990000e+00 7.085498e-15
-9.980000e+00 2.715349e-15
-9.970000e+00 -2.212479e-15
-9.960000e+00 -7.601982e-15
-9.950000e+00 -1.333441e-14
-9.940001e+00 -1.927058e-14
-9.930000e+00 -2.525406e-14
-9.920000e+00 -3.111515e-14
-9.910000e+00 -3.667553e-14
-9.900000e+00 -4.175356e-14
-9.890000e+00 -4.616995e-14
-9.880000e+00 -4.975374e-14
-9.870000e+00 -5.234831e-14
-9.860001e+00 -5.381733e-14
-9.850000e+00 -5.405027e-14
-9.840000e+00 -5.296751e-14
-9.830000e+00 -5.052450e-14
-9.820000e+00 -4.671519e-14
-9.809999e+00 -4.157425e-14
-9.800000e+00 -3.517804e-14
-9.790000e+00 -2.764439e-14
-9.780000e+00 -1.913081e-14
-9.770000e+00 -9.831483e-15
-9.760000e+00 2.721256e-17
-9.750000e+00 1.019239e-14
-9.740000e+00 2.039152e-14
-9.730000e+00 3.034022e-14
-9.720000e+00 3.975080e-14
-9.710000e+00 4.834131e-14
-9.700000e+00 5.584477e-14
-9.690001e+00 6.201831e-14
-9.680000e+00 6.665190e-14
-9.670000e+00 6.957640e-14
-9.660000e+00 7.067051e-14
-9.650000e+00 6.986641e-14
-9.640000e+00 6.715405e-14
-9.630000e+00 6.258342e-14
-9.620000e+00 5.626509e-14
-9.610001e+00 4.836872e-14
-9.600000e+00 3.911953e-14
-9.590000e+00 2.879280e-14
-9.580000e+00 1.770647e-14
-9.570000e+00 6.212066e-15
-9.559999e+00 -5.315824e-15
-9.550000e+00 -1.649128e-14
-9.540000e+00 -2.692956e-14
-9.530000e+00 -3.625998e-14
-9.520000e+00 -4.413891e-14
-9.510000e+00 -5.026219e-14
-9.500000e+00 -5.437674e-14
-9.490000e+00 -5.629086e-14
-9.480000e+00 -5.588279e-14
-9.470000e+00 -5.310728e-14
-9.460000e+00 -4.799970e-14
-9.450000e+00 -4.067772e-14
-9.440001e+00 -3.134012e-14
-9.430000e+00 -2.026292e-14
-9.420000e+00 -7.792724e-15
-9.410000e+00 5.662594e-15
-9.400000e+00 1.964553e-14
-9.390000e+00 3.366273e-14
-9.380000e+00 4.720045e-14
-9.370000e+00 5.974128e-14
-9.360001e+00 7.078151e-14
-9.350000e+00 7.984872e-14
-9.340000e+00 8.651887e-14
-9.330000e+00 9.043242e-14
-9.320000e+00 9.130881e-14
-9.309999e+00 8.895875e-14
-9.300000e+00 8.329398e-14
-9.290000e+00 7.433388e-14
-9.280000e+00 6.220880e-14
-9.270000e+00 4.715971e-14
-9.260000e+00 2.953424e-14
-9.250000e+00 9.778953e-15
-9.240000e+00 -1.157181e-14
-9.230000e+00 -3.391049e-14
-9.220000e+00 -5.657366e-14
-9.210000e+00 -7.886185e-14
-9.200000e+00 -1.000612e-13
-9.190001e+00 -1.194661e-13
-9.180000e+00 -1.364026e-13
-9.170000e+00 -1.502512e-13
-9.160000e+00 -1.604688e-13
-9.150000e+00 -1.666082e-13
-9.140000e+00 -1.683364e-13
-9.130000e+00 -1.654478e-13
-9.120000e+00 -1.578755e-13
-9.110001e+00 -1.456970e-13
-9.100000e+00 -1.291363e-13
-9.090000e+00 -1.085607e-13
-9.080000e+00 -8.447325e-14
-9.070000e+00 -5.750034e-14
-9.060000e+00 -2.837520e-14
-9.050000e+00 2.082654e-15
-9.040000e+00 3.299109e-14
-9.030000e+00 6.343182e-14
-9.020000e+00 9.247849e-14
-9.010000e+00 1.192259e-13
-9.000000e+00 1.428187e-13
-8.990000e+00 1.624802e-13
-8.980000e+00 1.775379e-13
-8.970000e+00 1.874472e-13
-8.960000e+00 1.918114e-13
-8.950000e+00 1.903969e-13
-8.940001e+00 1.831437e-13
-8.930000e+00 1.701713e-13
-8.920000e+00 1.517774e-13
-8.910000e+00 1.284323e-13
-8.900000e+00 1.007670e-13
-8.890000e+00 6.955624e-14
-8.880000e+00 3.569643e-14
-8.870000e+00 1.794992e-16
-8.860001e+00 -3.593667e-14
-8.850000e+00 -7.156047e-14
-8.840000e+00 -1.056002e-13
-8.830000e+00 -1.369982e-13
-8.820000e+00 -1.647645e-13
-8.810000e+00 -1.880082e-13
-8.800000e+00 -2.059668e-13
-8.790000e+00 -2.180312e-13
-8.780000e+00 -2.237660e-13
-8.770000e+00 -2.229248e-13
-8.760000e+00 -2.154596e-13
-8.750000e+00 -2.015234e-13
-8.740000e+00 -1.814669e-13
-8.730000e+00 -1.558284e-13
-8.720000e+00 -1.253182e-13
-8.710000e+00 -9.079668e-14
-8.700000e+00 -5.324776e-14
-8.690001e+00 -1.374836e-14
-8.680000e+00 2.656553e-14
-8.670000e+00 6.653465e-14
-8.660000e+00 1.050132e-13
-8.650000e+00 1.409051e-13
-8.640000e+00 1.731989e-13
-8.630000e+00 2.009998e-13
-8.620000e+00 2.235576e-13
-8.610001e+00 2.402906e-13
-8.600000e+00 2.508030e-13
-8.590000e+00 2.548971e-13
-8.580000e+00 2.525780e-13
-8.570000e+00 2.440518e-13
-8.560000e+00 2.297179e-13
-8.550000e+00 2.101532e-13
-8.540000e+00 1.860920e-13
-8.530000e+00 1.583993e-13
-8.520000e+00 1.280411e-13
-8.510000e+00 9.605002e-14
-8.500000e+00 6.348969e-14
-8.490000e+00 3.141795e-14
-8.480000e+00 8.504897e-16
-8.470000e+00 -2.727403e-14
-8.460000e+00 -5.212578e-14
-8.450000e+00 -7.301171e-14
-8.440001e+00 -8.939853e-14
-8.430000e+00 -1.009298e-13
-8.420000e+00 -1.074370e-13
-8.410000e+00 -1.089431e-13
-8.400000e+00 -1.056602e-13
-8.390000e+00 -9.797951e-14
-8.380000e+00 -8.645537e-14
-8.370000e+00 -7.178311e-14
-8.360001e+00 -5.477193e-14
-8.350000e+00 -3.631363e-14
-8.340000e+00 -1.734825e-14
-8.330000e+00 1.171998e-15
-8.320000e+00 1.831929e-14
-8.310000e+00 3.322592e-14
-8.300000e+00 4.511786e-14
-8.290000e+00 5.334497e-14
-8.280000e+00 5.740664e-14
-8.270000e+00 5.697211e-14
-8.260000e+00 5.189448e-14
-8.250000e+00 4.221799e-14
-8.240000e+00 2.817835e-14
-8.230000e+00 1.019582e-14
-8.220000e+00 -1.113844e-14
-8.210000e+00 -3.508252e-14
-8.200000e+00 -6.076956e-14
-8.190001e+00 -8.723845e-14
-8.180000e+00 -1.134681e-13
-8.170000e+00 -1.384144e-13
-8.160000e+00 -1.610479e-13
-8.150000e+00 -1.803923e-13
-8.140000e+00 -1.955597e-13
-8.130000e+00 -2.057845e-13
-8.120000e+00 -2.104525e-13
-8.110001e+00 -2.091245e-13
-8.100000e+00 -2.015543e-13
-8.090000e+00 -1.876997e-13
-8.080000e+00 -1.677261e-13
-8.070000e+00 -1.420030e-13
-8.060000e+00 -1.110928e-13
-8.050000e+00 -7.573322e-14
-8.040000e+00 -3.681273e-14
-8.030000e+00 4.659056e-15
-8.020000e+00 4.758559e-14
-8.010000e+00 9.082076e-14
-8.000000e+00 1.332082e-13
-7.990000e+00 1.736210e-13
-7.980000e+00 2.110004e-13
-7.970000e+00 2.443923e-13
-7.960000e+00 2.729796e-13
-7.950000e+00 2.961103e-13
-7.940000e+00 3.133192e-13
-7.930000e+00 3.243432e-13
-7.920000e+00 3.291288e-13
-7.910000e+00 3.278326e-13
-7.900000e+00 3.208143e-13
-7.890000e+00 3.086216e-13
-7.880000e+00 2.919694e-13
-7.870000e+00 2.717120e-13
-7.860000e+00 2.488113e-13
-7.850000e+00 2.243005e-13
-7.840000e+00 1.992453e-13
-7.830000e+00 1.747052e-13
-7.820000e+00 1.516938e-13
-7.810000e+00 1.311422e-13
-7.800000e+00 1.138649e-13
-7.790000e+00 1.005311e-13
-7.780000e+00 9.164087e-14
-7.770000e+00 8.750830e-14
-7.760000e+00 8.825194e-14
-7.750000e+00 9.379259e-14
-7.740000e+00 1.038587e-13
-7.730000e+00 1.179996e-13
-7.720000e+00 1.356047e-13
-7.710000e+00 1.559302e-13
-7.700000e+00 1.781299e-13
-7.690000e+00 2.012903e-13
-7.680000e+00 2.244684e-13
-7.670000e+00 2.467306e-13
-7.660000e+00 2.671909e-13
-7.650000e+00 2.850478e-13
-7.640000e+00 2.996175e-13
-7.630000e+00 3.103624e-13
-7.620000e+00 3.169137e-13
-7.610000e+00 3.190879e-13
-7.600000e+00 3.168952e-13
-7.590000e+00 3.105405e-13
-7.580000e+00 3.004165e-13
-7.570000e+00 2.870886e-13
-7.560000e+00 2.712739e-13
-7.550000e+00 2.538123e-13
-7.540000e+00 2.356339e-13
-7.530000e+00 2.177210e-13
-7.520000e+00 2.010686e-13
-7.510000e+00 1.866433e-13
-7.500000e+00 1.753429e-13
-7.490000e+00 1.679586e-13
-7.480000e+00 1.651408e-13
-7.470000e+00 1.673696e-13
-7.460000e+00 1.749324e-13
-7.450000e+00 1.879085e-13
-7.440000e+00 2.061620e-13
-7.430000e+00 2.293432e-13
-7.420000e+00 2.568984e-13
-7.410000e+00 2.880884e-13
-7.400000e+00 3.220142e-13
-7.390000e+00 3.576506e-13
-7.380000e+00 3.938843e-13
-7.370000e+00 4.295568e-13
-7.360000e+00 4.635106e-13
-7.350000e+00 4.946351e-13
-7.340000e+00 5.219126e-13
-7.330000e+00 5.444614e-13
-7.320000e+00 5.615744e-13
-7.310000e+00 5.727517e-13
-7.300000e+00 5.777261e-13
-7.290000e+00 5.764801e-13
-7.280000e+00 5.692535e-13
-7.270000e+00 5.565407e-13
-7.260000e+00 5.390797e-13
-7.250000e+00 5.178294e-13
-7.240000e+00 4.939398e-13
-7.230000e+00 4.687126e-13
-7.220000e+00 4.435563e-13
-7.210000e+00 4.199359e-13
-7.200000e+00 3.993186e-13
-7.190000e+00 3.831190e-13
-7.180000e+00 3.726447e-13
-7.170000e+00 3.690446e-13
-7.160000e+00 3.732621e-13
-7.150000e+00 3.859947e-13
-7.140000e+00 4.076620e-13
-7.130000e+00 4.383835e-13
-7.120000e+00 4.779663e-13
-7.110000e+00 5.259053e-13
-7.100000e+00 5.813938e-13
-7.090000e+00 6.433453e-13
-7.080000e+00 7.104277e-13
-7.070000e+00 7.811049e-13
-7.060000e+00 8.536882e-13
-7.050000e+00 9.263939e-13
-7.040000e+00 9.974055e-13
-7.030000e+00 1.064938e-12
-7.020000e+00 1.127302e-12
-7.010000e+00 1.182967e-12
-7.000000e+00 1.230617e-12
-6.990000e+00 1.269205e-12
-6.980000e+00 1.297989e-12
-6.970000e+00 1.316572e-12
-6.960000e+00 1.324911e-12
-6.950000e+00 1.323334e-12
-6.940000e+00 1.312530e-12
-6.930000e+00 1.293527e-12
-6.920000e+00 1.267667e-12
-6.910000e+00 1.236554e-12
-6.900000e+00 1.202009e-12
-6.890000e+00 1.166003e-12
-6.880000e+00 1.130590e-12
-6.870000e+00 1.097833e-12
-6.860000e+00 1.069734e-12
-6.850000e+00 1.048158e-12
-6.840000e+00 1.034767e-12
-6.830000e+00 1.030958e-12
-6.820000e+00 1.037807e-12
-6.810000e+00 1.056030e-12
-6.800000e+00 1.085953e-12
-6.790000e+00 1.127493e-12
-6.780000e+00 1.180160e-12
-6.770000e+00 1.243069e-12
-6.760000e+00 1.314965e-12
-6.750000e+00 1.394267e-12
-6.740000e+00 1.479123e-12
-6.730000e+00 1.567471e-12
-6.720000e+00 1.657111e-12
-6.710000e+00 1.745786e-12
-6.700000e+00 1.831264e-12
-6.690000e+00 1.911413e-12
-6.680000e+00 1.984290e-12
-6.670000e+00 2.048203e-12
-6.660000e+00 2.101784e-12
-6.650000e+00 2.144042e-12
-6.640000e+00 2.174398e-12
-6.630000e+00 2.192720e-12
-6.620000e+00 2.199331e-12
-6.610000e+00 2.195000e-12
-6.600000e+00 2.180928e-12
-6.590000e+00 2.158708e-12
-6.580000e+00 2.130273e-12
-6.570000e+00 2.097835e-12
-6.560000e+00 2.063810e-12
-6.550000e+00 2.030732e-12
-6.540000e+00 2.001173e-12
-6.530000e+00 1.977648e-12
-6.520000e+00 1.962526e-12
-6.510000e+00 1.957952e-12
-6.500000e+00 1.965762e-12
-6.490000e+00 1.987423e-12
-6.480000e+00 2.023976e-12
-6.470000e+00 2.075999e-12
-6.460000e+00 2.143576e-12
-6.450000e+00 2.226303e-12
-6.440000e+00 2.323290e-12
-6.430000e+00 2.433190e-12
-6.420000e+00 2.554251e-12
-6.410000e+00 2.684366e-12
-6.400000e+00 2.821154e-12
-6.390000e+00 2.962036e-12
-6.380000e+00 3.104330e-12
-6.370000e+00 3.245343e-12
-6.360000e+00 3.382467e-12
-6.350000e+00 3.513276e-12
-6.340000e+00 3.635604e-12
-6.330000e+00 3.747632e-12
-6.320000e+00 3.847954e-12
-6.310000e+00 3.935622e-12
-6.300000e+00 4.010191e-12
-6.290000e+00 4.071732e-12
-6.280000e+00 4.120834e-12
-6.270000e+00 4.158585e-12
-6.260000e+00 4.186539e-12
-6.250000e+00 4.206657e-12
-6.240000e+00 4.221246e-12
-6.230000e+00 4.232874e-12
-6.220000e+00 4.244281e-12
-6.210000e+00 4.258283e-12
-6.200000e+00 4.277670e-12
-6.190000e+00 4.305111e-12
-6.180000e+00 4.343049e-12
-6.170000e+00 4.393622e-12
-6.160000e+00 4.458578e-12
-6.150000e+00 4.539214e-12
-6.140000e+00 4.636323e-12
-6.130000e+00 4.750169e-12
-6.120000e+00 4.880463e-12
-6.110000e+00 5.026379e-12
-6.100000e+00 5.186577e-12
-6.090000e+00 5.359243e-12
-6.080000e+00 5.542149e-12
-6.070000e+00 5.732735e-12
-6.060000e+00 5.928191e-12
-6.050000e+00 6.125551e-12
-6.040000e+00 6.321802e-12
-6.030000e+00 6.513985e-12
-6.020000e+00 6.699293e-12
-6.010000e+00 6.875180e-12
-6.000000e+00 7.039439e-12
-5.990000e+00 7.190290e-12
-5.980000e+00 7.326434e-12
-5.970000e+00 7.447105e-12
-5.960000e+00 7.552097e-12
-5.950000e+00 7.641779e-12
-5.940000e+00 7.717073e-12
-5.930000e+00 7.779433e-12
-5.920000e+00 7.830799e-12
-5.910000e+00 7.873527e-12
-5.900000e+00 7.910310e-12
-5.890000e+00 7.944099e-12
-5.880000e+00 7.977987e-12
-5.870000e+00 8.015128e-12
-5.860000e+00 8.058610e-12
-5.850000e+00 8.111372e-12
-5.840000e+00 8.176095e-12
-5.830000e+00 8.255124e-12
-5.820000e+00 8.350388e-12
-5.810000e+00 8.463343e-12
-5.800000e+00 8.594928e-12
-5.790000e+00 8.745540e-12
-5.780000e+00 8.915027e-12
-5.770000e+00 9.102701e-12
-5.760000e+00 9.307373e-12
-5.750000e+00 9.527395e-12
-5.740000e+00 9.760726e-12
-5.730000e+00 1.000501e-11
-5.720000e+00 1.025767e-11
-5.710000e+00 1.051597e-11
-5.700000e+00 1.077716e-11
-5.690000e+00 1.103852e-11
-5.680000e+00 1.129751e-11
-5.670000e+00 1.155181e-11
-5.660000e+00 1.179941e-11
-5.650000e+00 1.203870e-11
-5.640000e+00 1.226848e-11
-5.630000e+00 1.248801e-11
-5.620000e+00 1.269705e-11
-5.610000e+00 1.289583e-11
-5.600000e+00 1.308505e-11
-5.590000e+00 1.326582e-11
-5.580000e+00 1.343964e-11
-5.570000e+00 1.360835e-11
-5.560000e+00 1.377399e-11
-5.550000e+00 1.393879e-11
-5.540000e+00 1.410507e-11
-5.530000e+00 1.427511e-11
-5.520000e+00 1.445114e-11
-5.510000e+00 1.463518e-11
-5.500000e+00 1.482904e-11
-5.490000e+00 1.503420e-11
-5.480000e+00 1.525181e-11
-5.470000e+00 1.548261e-11
-5.460000e+00 1.572696e-11
-5.450000e+00 1.598479e-11
-5.440000e+00 1.625564e-11
-5.430000e+00 1.653869e-11
-5.420000e+00 1.683278e-11
-5.410000e+00 1.713647e-11
-5.400000e+00 1.744813e-11
-5.390000e+00 1.776598e-11
-5.380000e+00 1.808818e-11
-5.370000e+00 1.841288e-11
-5.360000e+00 1.873836e-11
-5.350000e+00 1.906303e-11
-5.340000e+00 1.938554e-11
-5.330000e+00 1.970483e-11
-5.320000e+00 2.002014e-11
-5.310000e+00 2.033111e-11
-5.300000e+00 2.063771e-11
-5.290000e+00 2.094032e-11
-5.280000e+00 2.123967e-11
-5.270000e+00 2.153683e-11
-5.260000e+00 2.183318e-11
-5.250000e+00 2.213032e-11
-5.240000e+00 2.243008e-11
-5.230000e+00 2.273436e-11
-5.220000e+00 2.304516e-11
-5.210000e+00 2.336442e-11
-5.200000e+00 2.369400e-11
-5.190000e+00 2.403559e-11
-5.180000e+00 2.439064e-11
-5.170000e+00 2.476033e-11
-5.160000e+00 2.514552e-11
-5.150000e+00 2.554671e-11
-5.140000e+00 2.596404e-11
-5.130000e+00 2.639724e-11
-5.120000e+00 2.684572e-11
-5.110000e+00 2.730853e-11
-5.100000e+00 2.778440e-11
-5.090000e+00 2.827184e-11
-5.080000e+00 2.876914e-11
-5.070000e+00 2.927444e-11
-5.060000e+00 2.978583e-11
-5.050000e+00 3.030140e-11
-5.040000e+00 3.081931e-11
-5.030000e+00 3.133783e-11
-5.020000e+00 3.185546e-11
-5.010000e+00 3.237093e-11
-5.000000e+00 3.288324e-11
-4.990000e+00 3.339175e-11
-4.980000e+00 3.389612e-11
-4.970000e+00 3.439636e-11
-4.960000e+00 3.489283e-11
-4.950000e+00 3.538621e-11
-4.940000e+00 3.587745e-11
-4.930000e+00 3.636777e-11
-4.920000e+00 3.685857e-11
-4.910000e+00 3.735142e-11
-4.900000e+00 3.784797e-11
-4.890000e+00 3.834990e-11
-4.880000e+00 3.885885e-11
-4.870000e+00 3.937640e-11
-4.860000e+00 3.990399e-11
-4.850000e+00 4.044287e-11
-4.840000e+00 4.099410e-11
-4.830000e+00 4.155851e-11
-4.820000e+00 4.213666e-11
-4.810000e+00 4.272889e-11
-4.800000e+00 4.333530e-11
-4.790000e+00 4.395575e-11
-4.780000e+00 4.458993e-11
-4.770000e+00 4.523736e-11
-4.760000e+00 4.589746e-11
-4.750000e+00 4.656959e-11
-4.740000e+00 4.725308e-11
-4.730000e+00 4.794728e-11
-4.720000e+00 4.865165e-11
-4.710000e+00 4.936574e-11
-4.700000e+00 5.008926e-11
-4.690000e+00 5.082210e-11
-4.680000e+00 5.156435e-11
-4.670000e+00 5.231630e-11
-4.660000e+00 5.307845e-11
-4.650000e+00 5.385146e-11
-4.640000e+00 5.463618e-11
-4.630000e+00 5.543356e-11
-4.620000e+00 5.624468e-11
-4.610000e+00 5.707062e-11
-4.600000e+00 5.791248e-11
-4.590000e+00 5.877128e-11
-4.580000e+00 5.964793e-11
-4.570000e+00 6.054318e-11
-4.560000e+00 6.145756e-11
-4.550000e+00 6.239136e-11
-4.540000e+00 6.334459e-11
-4.530000e+00 6.431694e-11
-4.520000e+00 6.530784e-11
-4.510000e+00 6.631639e-11
-4.500000e+00 6.734141e-11
-4.490000e+00 6.838145e-11
-4.480000e+00 6.943486e-11
-4.470000e+00 7.049984e-11
-4.460000e+00 7.157444e-11
-4.450000e+00 7.265669e-11
-4.440000e+00 7.374465e-11
-4.430000e+00 7.483644e-11
-4.420000e+00 7.593038e-11
-4.410000e+00 7.702498e-11
-4.400000e+00 7.811906e-11
-4.390000e+00 7.921177e-11
-4.380000e+00 8.030261e-11
-4.370000e+00 8.139153e-11
-4.360000e+00 8.247884e-11
-4.350000e+00 8.356531e-11
-4.340000e+00 8.465211e-11
-4.330000e+00 8.574076e-11
-4.320000e+00 8.683314e-11
-4.310000e+00 8.793141e-11
-4.300000e+00 8.903794e-11
-4.290000e+00 9.015526e-11
-4.280000e+00 9.128598e-11
-4.270000e+00 9.243270e-11
-4.260000e+00 9.359797e-11
-4.250000e+00 9.478415e-11
-4.240000e+00 9.599339e-11
-4.230000e+00 9.722757e-11
-4.220000e+00 9.848823e-11
-4.210000e+00 9.977653e-11
-4.200000e+00 1.010933e-10
-4.190000e+00 1.024387e-10
-4.180000e+00 1.038130e-10
-4.170000e+00 1.052155e-10
-4.160000e+00 1.066455e-10
-4.150000e+00 1.081019e-10
-4.140000e+00 1.095834e-10
-4.130000e+00 1.110884e-10
-4.120000e+00 1.126153e-10
-4.110000e+00 1.141622e-10
-4.100000e+00 1.157275e-10
-4.090000e+00 1.173096e-10
-4.080000e+00 1.189070e-10
-4.070000e+00 1.205183e-10
-4.060000e+00 1.221427e-10
-4.050000e+00 1.237794e-10
-4.040000e+00 1.254280e-10
-4.030000e+00 1.270884e-10
-4.020000e+00 1.287609e-10
-4.010000e+00 1.304461e-10
-4.000000e+00 1.321447e-10
-3.990000e+00 1.338579e-10
-3.980000e+00 1.355868e-10
-3.970000e+00 1.373330e-10
-3.960000e+00 1.390977e-10
-3.950000e+00 1.408825e-10
-3.940001e+00 1.426886e-10
-3.930000e+00 1.445174e-10
-3.920000e+00 1.463697e-10
-3.910000e+00 1.482464e-10
-3.900001e+00 1.501479e-10
-3.890000e+00 1.520744e-10
-3.880000e+00 1.540258e-10
-3.870000e+00 1.560016e-10
-3.860001e+00 1.580008e-10
-3.850000e+00 1.600226e-10
-3.840000e+00 1.620655e-10
-3.830000e+00 1.641280e-10
-3.820001e+00 1.662085e-10
-3.810000e+00 1.683054e-10
-3.800000e+00 1.704168e-10
-3.790000e+00 1.725413e-10
-3.780000e+00 1.746774e-10
-3.770000e+00 1.768239e-10
-3.760000e+00 1.789799e-10
-3.750000e+00 1.811450e-10
-3.740000e+00 1.833189e-10
-3.730000e+00 1.855020e-10
-3.720000e+00 1.876949e-10
-3.710000e+00 1.898989e-10
-3.700000e+00 1.921154e-10
-3.690001e+00 1.943465e-10
-3.680000e+00 1.965944e-10
-3.670000e+00 1.988615e-10
-3.660000e+00 2.011507e-10
-3.650001e+00 2.034646e-10
-3.640000e+00 2.058064e-10
-3.630000e+00 2.081786e-10
-3.620000e+00 2.105839e-10
-3.610001e+00 2.130248e-10
-3.600000e+00 2.155032e-10
-3.590000e+00 2.180210e-10
-3.580000e+00 2.205794e-10
-3.570001e+00 2.231790e-10
-3.560000e+00 2.258204e-10
-3.550000e+00 2.285031e-10
-3.540000e+00 2.312264e-10
-3.530000e+00 2.339892e-10
-3.520000e+00 2.367897e-10
-3.510000e+00 2.396259e-10
-3.500000e+00 2.424955e-10
-3.490000e+00 2.453957e-10
-3.480000e+00 2.483239e-10
-3.470000e+00 2.512771e-10
-3.460000e+00 2.542526e-10
-3.450000e+00 2.572477e-10
-3.440001e+00 2.602598e-10
-3.430000e+00 2.632866e-10
-3.420000e+00 2.663263e-10
-3.410000e+00 2.693774e-10
-3.400001e+00 2.724388e-10
-3.390000e+00 2.755097e-10
-3.380000e+00 2.785899e-10
-3.370000e+00 2.816799e-10
-3.360001e+00 2.847801e-10
-3.350000e+00 2.878916e-10
-3.340000e+00 2.910159e-10
-3.330000e+00 2.941545e-10
-3.320001e+00 2.973095e-10
-3.310000e+00 3.004826e-10
-3.300000e+00 3.036761e-10
-3.290000e+00 3.068920e-10
-3.280000e+00 3.101322e-10
-3.270000e+00 3.133986e-10
-3.260000e+00 3.166928e-10
-3.250000e+00 3.200161e-10
-3.240000e+00 3.233697e-10
-3.230000e+00 3.267545e-10
-3.220000e+00 3.301709e-10
-3.210000e+00 3.336191e-10
-3.200000e+00 3.370992e-10
-3.190001e+00 3.406107e-10
-3.180000e+00 3.441533e-10
-3.170000e+00 3.477264e-10
-3.160000e+00 3.513291e-10
-3.150001e+00 3.549608e-10
-3.140000e+00 3.586206e-10
-3.130000e+00 3.623080e-10
-3.120000e+00 3.660222e-10
-3.110001e+00 3.697630e-10
-3.100000e+00 3.735301e-10
-3.090000e+00 3.773235e-10
-3.080000e+00 3.811433e-10
-3.070001e+00 3.849900e-10
-3.060000e+00 3.888643e-10
-3.050000e+00 3.927669e-10
-3.040000e+00 3.966988e-10
-3.030000e+00 4.006609e-10
-3.020000e+00 4.046543e-10
-3.010000e+00 4.086802e-10
-3.000000e+00 4.127393e-10
-2.990000e+00 4.168326e-10
-2.980000e+00 4.209606e-10
-2.970000e+00 4.251237e-10
-2.960000e+00 4.293221e-10
-2.950000e+00 4.335554e-10
-2.940001e+00 4.378230e-10
-2.930000e+00 4.421241e-10
-2.920000e+00 4.464573e-10
-2.910000e+00 4.508213e-10
-2.900001e+00 4.552140e-10
-2.890000e+00 4.596333e-10
-2.880000e+00 4.640770e-10
-2.870000e+00 4.685427e-10
-2.860001e+00 4.730280e-10
-2.850000e+00 4.775303e-10
-2.840000e+00 4.820475e-10
-2.830000e+00 4.865774e-10
-2.820001e+00 4.911183e-10
-2.810000e+00 4.956685e-10
-2.800000e+00 5.002268e-10
-2.790000e+00 5.047924e-10
-2.780000e+00 5.093650e-10
-2.770000e+00 5.139446e-10
-2.760000e+00 5.185317e-10
-2.750000e+00 5.231273e-10
-2.740000e+00 5.277324e-10
-2.730000e+00 5.323486e-10
-2.720000e+00 5.369776e-10
-2.710000e+00 5.416215e-10
-2.700000e+00 5.462821e-10
-2.690001e+00 5.509616e-10
-2.680000e+00 5.556617e-10
-2.670000e+00 5.603843e-10
-2.660000e+00 5.651309e-10
-2.650001e+00 5.699027e-10
-2.640000e+00 5.747006e-10
-2.630000e+00 5.795249e-10
-2.620000e+00 5.843757e-10
-2.610001e+00 5.892525e-10
-2.600000e+00 5.941547e-10
-2.590000e+00 5.990808e-10
-2.580000e+00 6.040294e-10
-2.570001e+00 6.089985e-10
-2.560000e+00 6.139861e-10
-2.550000e+00 6.189898e-10
-2.540000e+00 6.240074e-10
-2.530001e+00 6.290366e-10
-2.520000e+00 6.340752e-10
-2.510000e+00 6.391211e-10
-2.500000e+00 6.441727e-10
-2.490000e+00 6.492285e-10
-2.480000e+00 6.542875e-10
-2.470000e+00 6.593490e-10
-2.460000e+00 6.644129e-10
-2.450000e+00 6.694796e-10
-2.440001e+00 6.745495e-10
-2.430000e+00 6.796236e-10
-2.420000e+00 6.847034e-10
-2.410000e+00 6.897903e-10
-2.400001e+00 6.948861e-10
-2.390000e+00 6.999926e-10
-2.380000e+00 7.051114e-10
-2.370000e+00 7.102442e-10
-2.360001e+00 7.153922e-10
-2.350000e+00 7.205566e-10
-2.340000e+00 7.257377e-10
-2.330000e+00 7.309358e-10
-2.320001e+00 7.361504e-10
-2.310000e+00 7.413803e-10
-2.300000e+00 7.466241e-10
-2.290000e+00 7.518796e-10
-2.280001e+00 7.571437e-10
-2.270000e+00 7.624135e-10
-2.260000e+00 7.676853e-10
-2.250000e+00 7.729549e-10
-2.240000e+00 7.782182e-10
-2.230000e+00 7.834707e-10
-2.220000e+00 7.887080e-10
-2.210000e+00 7.939262e-10
-2.200000e+00 7.991210e-10
-2.190001e+00 8.042890e-10
-2.180000e+00 8.094269e-10
-2.170000e+00 8.145322e-10
-2.160000e+00 8.196031e-10
-2.150001e+00 8.246381e-10
-2.140000e+00 8.296367e-10
-2.130000e+00 8.345992e-10
-2.120000e+00 8.395262e-10
-2.110001e+00 8.444190e-10
-2.100000e+00 8.492798e-10
-2.090000e+00 8.541108e-10
-2.080000e+00 8.589147e-10
-2.070001e+00 8.636943e-10
-2.060000e+00 8.684526e-10
-2.050000e+00 8.731925e-10
-2.040000e+00 8.779164e-10
-2.030001e+00 8.826267e-10
-2.020000e+00 8.873249e-10
-2.010000e+00 8.920122e-10
-2.000000e+00 8.966891e-10
-1.990000e+00 9.013550e-10
-1.980000e+00 9.060090e-10
-1.970000e+00 9.106488e-10
-1.960000e+00 9.152719e-10
-1.950000e+00 9.198746e-10
-1.940001e+00 9.244527e-10
-1.930000e+00 9.290015e-10
-1.920000e+00 9.335158e-10
-1.910000e+00 9.379901e-10
-1.900001e+00 9.424186e-10
-1.890000e+00 9.467958e-10
-1.880000e+00 9.511160e-10
-1.870000e+00 9.553740e-10
-1.860001e+00 9.595651e-10
-1.850000e+00 9.636848e-10
-1.840000e+00 9.677299e-10
-1.830000e+00 9.716973e-10
-1.820001e+00 9.755853e-10
-1.810000e+00 9.793923e-10
-1.800000e+00 9.831184e-10
-1.790000e+00 9.867637e-10
-1.780001e+00 9.903292e-10
-1.770000e+00 9.938167e-10
-1.760000e+00 9.972282e-10
-1.750000e+00 1.000566e-09
-1.740000e+00 1.003834e-09
-1.730000e+00 1.007033e-09
-1.720000e+00 1.010166e-09
-1.710000e+00 1.013236e-09
-1.700000e+00 1.016245e-09
-1.690001e+00 1.019192e-09
-1.680000e+00 1.022079e-09
-1.670000e+00 1.024905e-09
-1.660000e+00 1.027668e-09
-1.650001e+00 1.030366e-09
-1.640000e+00 1.032996e-09
-1.630000e+00 1.035553e-09
-1.620000e+00 1.038033e-09
-1.610001e+00 1.040429e-09
-1.600000e+00 1.042735e-09
-1.590000e+00 1.044944e-09
-1.580000e+00 1.047049e-09
-1.570001e+00 1.049042e-09
-1.560000e+00 1.050917e-09
-1.550000e+00 1.052665e-09
-1.540000e+00 1.054281e-09
-1.530001e+00 1.055759e-09
-1.520000e+00 1.057092e-09
-1.510000e+00 1.058277e-09
-1.500000e+00 1.059309e-09
-1.490000e+00 1.060187e-09
-1.480000e+00 1.060908e-09
-1.470000e+00 1.061471e-09
-1.460000e+00 1.061878e-09
-1.450000e+00 1.062129e-09
-1.440001e+00 1.062226e-09
-1.430000e+00 1.062171e-09
-1.420000e+00 1.061967e-09
-1.410000e+00 1.061617e-09
-1.400001e+00 1.061124e-09
-1.390000e+00 1.060491e-09
-1.380000e+00 1.059720e-09
-1.370000e+00 1.058814e-09
-1.360001e+00 1.057773e-09
-1.350000e+00 1.056598e-09
-1.340000e+00 1.055290e-09
-1.330000e+00 1.053846e-09
-1.320001e+00 1.052263e-09
-1.310000e+00 1.050540e-09
-1.300000e+00 1.048669e-09
-1.290000e+00 1.046648e-09
-1.280001e+00 1.044467e-09
-1.270000e+00 1.042122e-09
-1.260000e+00 1.039603e-09
-1.250000e+00 1.036902e-09
-1.240000e+00 1.034012e-09
-1.230000e+00 1.030923e-09
-1.220000e+00 1.027628e-09
-1.210000e+00 1.024117e-09
-1.200000e+00 1.020383e-09
-1.190001e+00 1.016420e-09
-1.180000e+00 1.012221e-09
-1.170000e+00 1.007780e-09
-1.160000e+00 1.003093e-09
-1.150001e+00 9.981553e-10
-1.140000e+00 9.929654e-10
-1.130000e+00 9.875205e-10
-1.120000e+00 9.818197e-10
-1.110001e+00 9.758626e-10
-1.100000e+00 9.696491e-10
-1.090000e+00 9.631798e-10
-1.080000e+00 9.564555e-10
-1.070001e+00 9.494768e-10
-1.060000e+00 9.422447e-10
-1.050000e+00 9.347596e-10
-1.040000e+00 9.270213e-10
-1.030001e+00 9.190292e-10
-1.020000e+00 9.107822e-10
-1.010000e+00 9.022780e-10
-1.000000e+00 8.935139e-10
-9.899998e-01 8.844859e-10
-9.800005e-01 8.751896e-10