-1.200000e+01 0.000000e+00
-1.199000e+01 0.000000e+00
-1.198000e+01 0.000000e+00
-1.197000e+01 0.000000e+00
-1.196000e+01 0.000000e+00
-1.195000e+01 0.000000e+00
-1.194000e+01 0.000000e+00
-1.193000e+01 -2.052012e-39
-1.192000e+01 -4.217304e-38
-1.191000e+01 -4.391328e-37
-1.190000e+01 -3.123239e-36
-1.189000e+01 -1.716374e-35
-1.188000e+01 -7.795460e-35
-1.187000e+01 -3.051916e-34
-1.186000e+01 -1.059782e-33
-1.185000e+01 -3.331864e-33
-1.184000e+01 -9.630511e-33
-1.183000e+01 -2.589665e-32
-1.182000e+01 -6.539319e-32
-1.181000e+01 -1.562397e-31
-1.180000e+01 -3.553889e-31
-1.179000e+01 -7.735707e-31
-1.178000e+01 -1.618283e-30
-1.177000e+01 -3.265578e-30
-1.176000e+01 -6.376488e-30
-1.175000e+01 -1.208086e-29
-1.174000e+01 -2.226048e-29
-1.173000e+01 -3.997507e-29
-1.172000e+01 -7.008932e-29
-1.171000e+01 -1.201770e-28
-1.170000e+01 -2.017987e-28
-1.169000e+01 -3.322746e-28
-1.168000e+01 -5.370980e-28
-1.167000e+01 -8.531643e-28
-1.166000e+01 -1.333019e-27
-1.165000e+01 -2.050342e-27
-1.164000e+01 -3.106927e-27
-1.163000e+01 -4.641387e-27
-1.162000e+01 -6.839849e-27
-1.161000e+01 -9.948849e-27
-1.160000e+01 -1.429059e-26
-1.159000e+01 -2.028063e-26
-1.158000e+01 -2.844803e-26
-1.157000e+01 -3.945755e-26
-1.156000e+01 -5.413371e-26
-1.155000e+01 -7.348584e-26
-1.154000e+01 -9.873301e-26
-1.153000e+01 -1.313275e-25
-1.152000e+01 -1.729753e-25
-1.151000e+01 -2.256499e-25
-1.150000e+01 -2.915994e-25
-1.149000e+01 -3.733396e-25
-1.148000e+01 -4.736338e-25
-1.147000e+01 -5.954515e-25
-1.146000e+01 -7.419045e-25
-1.145000e+01 -9.161540e-25
-1.144000e+01 -1.121286e-24
-1.143000e+01 -1.360151e-24
-1.142000e+01 -1.635165e-24
-1.141000e+01 -1.948071e-24
-1.140000e+01 -2.299658e-24
-1.139000e+01 -2.689446e-24
-1.138000e+01 -3.115335e-24
-1.137000e+01 -3.573231e-24
-1.136000e+01 -4.056657e-24
-1.135000e+01 -4.556365e-24
-1.134000e+01 -5.059972e-24
-1.133000e+01 -5.551633e-24
-1.132000e+01 -6.011790e-24
-1.131000e+01 -6.417025e-24
-1.130000e+01 -6.740033e-24
-1.129000e+01 -6.949778e-24
-1.128000e+01 -7.011843e-24
-1.127000e+01 -6.889020e-24
-1.126000e+01 -6.542160e-24
-1.125000e+01 -5.931318e-24
-1.124000e+01 -5.017200e-24
-1.123000e+01 -3.762917e-24
-1.122000e+01 -2.136042e-24
-1.121000e+01 -1.109321e-25
-1.120000e+01 2.328714e-24
-1.119000e+01 5.187145e-24
-1.118000e+01 8.453766e-24
-1.117000e+01 1.210039e-23
-1.116000e+01 1.607867e-23
-1.115000e+01 2.031781e-23
-1.114000e+01 2.472284e-23
-1.113000e+01 2.917348e-23
-1.112000e+01 3.352395e-23
-1.111000e+01 3.760377e-23
-1.110000e+01 4.121972e-23
-1.109000e+01 4.415934e-23
-1.108000e+01 4.619571e-23
-1.107000e+01 4.709390e-23
-1.106000e+01 4.661894e-23
-1.105000e+01 4.454531e-23
-1.104000e+01 4.066773e-23
-1.103000e+01 3.481315e-23
-1.102000e+01 2.685345e-23
-1.101000e+01 1.671859e-23
-1.100000e+01 4.409523e-24
-1.099000e+01 -9.989559e-24
-1.098000e+01 -2.630053e-23
-1.097000e+01 -4.424275e-23
-1.096000e+01 -6.342745e-23
-1.095000e+01 -8.335584e-23
-1.094000e+01 -1.034217e-22
-1.093000e+01 -1.229190e-22
-1.092000e+01 -1.410552e-22
-1.091000e+01 -1.569704e-22
-1.090000e+01 -1.697628e-22
-1.089000e+01 -1.785199e-22
-1.088000e+01 -1.823550e-22
-1.087000e+01 -1.804492e-22
-1.086000e+01 -1.720961e-22
-1.085000e+01 -1.567489e-22
-1.084000e+01 -1.340683e-22
-1.083000e+01 -1.039677e-22
-1.082000e+01 -6.665456e-23
-1.081000e+01 -2.266477e-23
-1.080000e+01 2.711261e-23
-1.079000e+01 8.142306e-23
-1.078000e+01 1.386490e-22
-1.077000e+01 1.968296e-22
-1.076000e+01 2.536991e-22
-1.075000e+01 3.067455e-22
-1.074000e+01 3.532902e-22
-1.073000e+01 3.905863e-22
-1.072000e+01 4.159368e-22
-1.071000e+01 4.268278e-22
-1.070000e+01 4.210732e-22
-1.069000e+01 3.969664e-22
-1.068000e+01 3.534328e-22
-1.067000e+01 2.901747e-22
-1.066000e+01 2.078013e-22
-1.065000e+01 1.079358e-22
-1.064000e+01 -6.711532e-24
-1.063000e+01 -1.323105e-22
-1.062000e+01 -2.639285e-22
-1.061000e+01 -3.956050e-22
-1.060000e+01 -5.204875e-22
-1.059000e+01 -6.310350e-22
-1.058000e+01 -7.192850e-22
-1.057000e+01 -7.771884e-22
-1.056000e+01 -7.969993e-22
-1.055000e+01 -7.717156e-22
-1.054000e+01 -6.955539e-22
-1.053000e+01 -5.644422e-22
-1.052000e+01 -3.765100e-22
-1.051000e+01 -1.325507e-22
-1.050000e+01 1.635708e-22
-1.049000e+01 5.045921e-22
-1.048000e+01 8.796406e-22
-1.047000e+01 1.274160e-21
-1.046000e+01 1.670005e-21
-1.045000e+01 2.045725e-21
-1.044000e+01 2.377054e-21
-1.043000e+01 2.637618e-21
-1.042000e+01 2.799868e-21
-1.041000e+01 2.836213e-21
-1.040000e+01 2.720355e-21
-1.039000e+01 2.428780e-21
-1.038000e+01 1.942371e-21
-1.037000e+01 1.248076e-21
-1.036000e+01 3.405783e-22
-1.035000e+01 -7.761237e-22
-1.034000e+01 -2.087301e-21
-1.033000e+01 -3.566343e-21
-1.032000e+01 -5.173959e-21
-1.031000e+01 -6.857831e-21
-1.030000e+01 -8.552796e-21
-1.029000e+01 -1.018165e-20
-1.028000e+01 -1.165659e-20
-1.027000e+01 -1.288144e-20
-1.026000e+01 -1.375450e-20
-1.025000e+01 -1.417218e-20
-1.024000e+01 -1.403328e-20
-1.023000e+01 -1.324383e-20
-1.022000e+01 -1.172235e-20
-1.021000e+01 -9.405507e-21
-1.020000e+01 -6.253708e-21
-1.019000e+01 -2.256687e-21
-1.018000e+01 2.561376e-21
-1.017000e+01 8.137396e-21
-1.016000e+01 1.436589e-20
-1.015000e+01 2.109678e-20
-1.014000e+01 2.813463e-20
-1.013000e+01 3.523987e-20
-1.012000e+01 4.213181e-20
-1.011000e+01 4.849397e-20
-1.010000e+01 5.398167e-20
-1.009000e+01 5.823182e-20
-1.008000e+01 6.087497e-20
-1.007000e+01 6.154935e-20
-1.006000e+01 5.991665e-20
-1.005000e+01 5.567907e-20
-1.004000e+01 4.859721e-20
-1.003000e+01 3.850823e-20
-1.002000e+01 2.534333e-20
-1.001000e+01 9.144045e-21
-1.000000e+01 -9.923534e-21
-9.990000e+00 -3.155761e-20
-9.980000e+00 -5.531328e-20
-9.970000e+00 -8.059977e-20
-9.960000e+00 -1.066831e-19
-9.950000e+00 -1.326944e-19
-9.940001e+00 -1.576452e-19
-9.930000e+00 -1.804485e-19
-9.920000e+00 -1.999476e-19
-9.910000e+00 -2.149502e-19
-9.900000e+00 -2.242691e-19
-9.890000e+00 -2.267683e-19
-9.880000e+00 -2.214115e-19
-9.870000e+00 -2.073156e-19
-9.860001e+00 -1.838024e-19
-9.850000e+00 -1.504514e-19
-9.840000e+00 -1.071480e-19
-9.830000e+00 -5.412722e-20
-9.820000e+00 7.990967e-21
-9.809999e+00 7.817589e-20
-9.800000e+00 1.549728e-19
-9.790000e+00 2.365036e-19
-9.780000e+00 3.204831e-19
-9.770000e+00 4.042527e-19
-9.760000e+00 4.848318e-19
-9.750000e+00 5.589863e-19
-9.740000e+00 6.233158e-19
-9.730000e+00 6.743561e-19
-9.720000e+00 7.086960e-19
-9.710000e+00 7.231061e-19
-9.700000e+00 7.146749e-19
-9.690001e+00 6.809497e-19
-9.680000e+00 6.200763e-19
-9.670000e+00 5.309331e-19
-9.660000e+00 4.132532e-19
-9.650000e+00 2.677297e-19
-9.640000e+00 9.609833e-20
-9.630000e+00 -9.880820e-20
-9.620000e+00 -3.130395e-19
-9.610001e+00 -5.415437e-19
-9.600000e+00 -7.782246e-19
-9.590000e+00 -1.016042e-18
-9.580000e+00 -1.247155e-18
-9.570000e+00 -1.463111e-18
-9.559999e+00 -1.655070e-18
-9.550000e+00 -1.814072e-18
-9.540000e+00 -1.931332e-18
-9.530000e+00 -1.998561e-18
-9.520000e+00 -2.008295e-18
-9.510000e+00 -1.954239e-18
-9.500000e+00 -1.831595e-18
-9.490000e+00 -1.637373e-18
-9.480000e+00 -1.370673e-18
-9.470000e+00 -1.032915e-18
-9.460000e+00 -6.280157e-19
-9.450000e+00 -1.624981e-19
-9.440001e+00 3.544852e-19
-9.430000e+00 9.112111e-19
-9.420000e+00 1.493540e-18
-9.410000e+00 2.085167e-18
-9.400000e+00 2.667968e-18
-9.390000e+00 3.222444e-18
-9.380000e+00 3.728242e-18
-9.370000e+00 4.164760e-18
-9.360001e+00 4.511810e-18
-9.350000e+00 4.750323e-18
-9.340000e+00 4.863077e-18
-9.330000e+00 4.835428e-18
-9.320000e+00 4.656011e-18
-9.309999e+00 4.317388e-18
-9.300000e+00 3.816629e-18
-9.290000e+00 3.155770e-18
-9.280000e+00 2.342160e-18
-9.270000e+00 1.388645e-18
-9.260000e+00 3.135883e-19
-9.250000e+00 -8.592900e-19
-9.240000e+00 -2.101272e-18
-9.230000e+00 -3.379190e-18
-9.220000e+00 -4.656165e-18
-9.210000e+00 -5.892527e-18
-9.200000e+00 -7.046896e-18
-9.190001e+00 -8.077400e-18
-9.180000e+00 -8.942994e-18
-9.170000e+00 -9.604849e-18
-9.160000e+00 -1.002778e-17
-9.150000e+00 -1.018164e-17
-9.140000e+00 -1.004262e-17
-9.130000e+00 -9.594499e-18
-9.120000e+00 -8.829652e-18
-9.110001e+00 -7.749886e-18
-9.100000e+00 -6.367011e-18
-9.090000e+00 -4.703109e-18
-9.080000e+00 -2.790488e-18
-9.070000e+00 -6.712977e-19
-9.060000e+00 1.603213e-18
-9.050000e+00 3.973776e-18
-9.040000e+00 6.374517e-18
-9.030000e+00 8.734680e-18
-9.020000e+00 1.098061e-17
-9.010000e+00 1.303793e-17
-9.000000e+00 1.483391e-17
-8.990000e+00 1.629988e-17
-8.980000e+00 1.737366e-17
-8.970000e+00 1.800188e-17
-8.960000e+00 1.814221e-17
-8.950000e+00 1.776522e-17
-8.940001e+00 1.685604e-17
-8.930000e+00 1.541555e-17
-8.920000e+00 1.346110e-17
-8.910000e+00 1.102673e-17
-8.900000e+00 8.162883e-18
-8.890000e+00 4.935514e-18
-8.880000e+00 1.424637e-18
-8.870000e+00 -2.277638e-18
-8.860001e+00 -6.069571e-18
-8.850000e+00 -9.842692e-18
-8.840000e+00 -1.348504e-17
-8.830000e+00 -1.688467e-17
-8.820000e+00 -1.993326e-17
-8.810000e+00 -2.252977e-17
-8.800000e+00 -2.458399e-17
-8.790000e+00 -2.601981e-17
-8.780000e+00 -2.677815e-17
-8.770000e+00 -2.681936e-17
-8.760000e+00 -2.612510e-17
-8.750000e+00 -2.469945e-17
-8.740000e+00 -2.256930e-17
-8.730000e+00 -1.978395e-17
-8.720000e+00 -1.641389e-17
-8.710000e+00 -1.254877e-17
-8.700000e+00 -8.294681e-18
-8.690001e+00 -3.770696e-18
-8.680000e+00 8.951039e-19
-8.670000e+00 5.570027e-18
-8.660000e+00 1.012145e-17
-8.650000e+00 1.442156e-17
-8.640000e+00 1.835205e-17
-8.630000e+00 2.180844e-17
-8.620000e+00 2.470401e-17
-8.610001e+00 2.697300e-17
-8.600000e+00 2.857302e-17
-8.590000e+00 2.948656e-17
-8.580000e+00 2.972133e-17
-8.570000e+00 2.930964e-17
-8.560000e+00 2.830649e-17
-8.550000e+00 2.678674e-17
-8.540000e+00 2.484110e-17
-8.530000e+00 2.257140e-17
-8.520000e+00 2.008501e-17
-8.510000e+00 1.748893e-17
-8.500000e+00 1.488351e-17
-8.490000e+00 1.235635e-17
-8.480000e+00 9.976543e-18
-8.470000e+00 7.789528e-18
-8.460000e+00 5.813018e-18
-8.450000e+00 4.034118e-18
-8.440001e+00 2.407982e-18
-8.430000e+00 8.581640e-19
-8.420000e+00 -7.211852e-19
-8.410000e+00 -2.461208e-18
-8.400000e+00 -4.512333e-18
-8.390000e+00 -7.036471e-18
-8.380000e+00 -1.019760e-17
-8.370000e+00 -1.415101e-17
-8.360001e+00 -1.903162e-17
-8.350000e+00 -2.494173e-17
-8.340000e+00 -3.193878e-17
-8.330000e+00 -4.002373e-17
-8.320000e+00 -4.913050e-17
-8.310000e+00 -5.911725e-17
-8.300000e+00 -6.976005e-17
-8.290000e+00 -8.074944e-17
-8.280000e+00 -9.169056e-17
-8.270000e+00 -1.021069e-16
-8.260000e+00 -1.114485e-16
-8.250000e+00 -1.191044e-16
-8.240000e+00 -1.244192e-16
-8.230000e+00 -1.267142e-16
-8.220000e+00 -1.253123e-16
-8.210000e+00 -1.195654e-16
-8.200000e+00 -1.088859e-16
-8.190001e+00 -9.277858e-17
-8.180000e+00 -7.087368e-17
-8.170000e+00 -4.295926e-17
-8.160000e+00 -9.011909e-18
-8.150000e+00 3.077599e-17
-8.140000e+00 7.597342e-17
-8.130000e+00 1.258939e-16
-8.120000e+00 1.795860e-16
-8.110001e+00 2.358317e-16
-8.100000e+00 2.931554e-16
-8.090000e+00 3.498413e-16
-8.080000e+00 4.039625e-16
-8.070000e+00 4.534206e-16
-8.060000e+00 4.959960e-16
-8.050000e+00 5.294069e-16
-8.040000e+00 5.513786e-16
-8.030000e+00 5.597194e-16
-8.020000e+00 5.524028e-16
-8.010000e+00 5.276520e-16
-8.000000e+00 4.840271e-16
-7.990000e+00 4.205091e-16
-7.980000e+00 3.365800e-16
-7.970000e+00 2.322953e-16
-7.960000e+00 1.083452e-16
-7.950000e+00 -3.389812e-17
-7.940000e+00 -1.923489e-16
-7.930000e+00 -3.641970e-16
-7.920000e+00 -5.459169e-16
-7.910000e+00 -7.333019e-16
-7.900000e+00 -9.215202e-16
-7.890000e+00 -1.105198e-15
-7.880000e+00 -1.278526e-15
-7.870000e+00 -1.435390e-15
-7.860000e+00 -1.569519e-15
-7.850000e+00 -1.674663e-15
-7.840000e+00 -1.744770e-15
-7.830000e+00 -1.774193e-15
-7.820000e+00 -1.757883e-15
-7.810000e+00 -1.691603e-15
-7.800000e+00 -1.572117e-15
-7.790000e+00 -1.397386e-15
-7.780000e+00 -1.166730e-15
-7.770000e+00 -8.809781e-16
-7.760000e+00 -5.425766e-16
-7.750000e+00 -1.556693e-16
-7.740000e+00 2.738690e-16
-7.730000e+00 7.384432e-16
-7.720000e+00 1.228800e-15
-7.710000e+00 1.734139e-15
-7.700000e+00 2.242281e-15
-7.690000e+00 2.739884e-15
-7.680000e+00 3.212713e-15
-7.670000e+00 3.645953e-15
-7.660000e+00 4.024566e-15
-7.650000e+00 4.333681e-15
-7.640000e+00 4.559011e-15
-7.630000e+00 4.687287e-15
-7.620000e+00 4.706697e-15
-7.610000e+00 4.607318e-15
-7.600000e+00 4.381538e-15
-7.590000e+00 4.024433e-15
-7.580000e+00 3.534115e-15
-7.570000e+00 2.912020e-15
-7.560000e+00 2.163123e-15
-7.550000e+00 1.296083e-15
-7.540000e+00 3.232986e-16
-7.530000e+00 -7.391337e-16
-7.520000e+00 -1.871559e-15
-7.510000e+00 -3.051005e-15
-7.500000e+00 -4.251534e-15
-7.490000e+00 -5.444686e-15
-7.480000e+00 -6.600029e-15
-7.470000e+00 -7.685792e-15
-7.460000e+00 -8.669583e-15
-7.450000e+00 -9.519160e-15
-7.440000e+00 -1.020327e-14
-7.430000e+00 -1.069251e-14
-7.420000e+00 -1.096017e-14
-7.410000e+00 -1.098316e-14
-7.400000e+00 -1.074275e-14
-7.390000e+00 -1.022541e-14
-7.380000e+00 -9.423493e-15
-7.370000e+00 -8.335799e-15
-7.360000e+00 -6.968060e-15
-7.350000e+00 -5.333268e-15
-7.340000e+00 -3.451834e-15
-7.330000e+00 -1.351579e-15
-7.320000e+00 9.324527e-16
-7.310000e+00 3.358385e-15
-7.300000e+00 5.878081e-15
-7.290000e+00 8.437912e-15
-7.280000e+00 1.097971e-14
-7.270000e+00 1.344188e-14
-7.260000e+00 1.576069e-14
-7.250000e+00 1.787165e-14
-7.240000e+00 1.971105e-14
-7.230000e+00 2.121752e-14
-7.220000e+00 2.233366e-14
-7.210000e+00 2.300766e-14
-7.200000e+00 2.319489e-14
-7.190000e+00 2.285943e-14
-7.180000e+00 2.197540e-14
-7.170000e+00 2.052826e-14
-7.160000e+00 1.851578e-14
-7.150000e+00 1.594889e-14
-7.140000e+00 1.285216e-14
-7.130000e+00 9.264093e-15
-7.120000e+00 5.236971e-15
-7.110000e+00 8.365012e-16
-7.100000e+00 -3.858979e-15
-7.090000e+00 -8.759590e-15
-7.080000e+00 -1.376535e-14
-7.070000e+00 -1.876795e-14
-7.060000e+00 -2.365277e-14
-7.050000e+00 -2.830124e-14
-7.040000e+00 -3.259337e-14
-7.030000e+00 -3.641045e-14
-7.020000e+00 -3.963792e-14
-7.010000e+00 -4.216823e-14
-7.000000e+00 -4.390380e-14
-6.990000e+00 -4.475973e-14
-6.980000e+00 -4.466659e-14
-6.970000e+00 -4.357277e-14
-6.960000e+00 -4.144674e-14
-6.950000e+00 -3.827882e-14
-6.940000e+00 -3.408256e-14
-6.930000e+00 -2.889573e-14
-6.920000e+00 -2.278069e-14
-6.910000e+00 -1.582429e-14
-6.900000e+00 -8.137116e-15
-6.890000e+00 1.477972e-16
-6.880000e+00 8.876864e-15
-6.870000e+00 1.787843e-14
-6.860000e+00 2.696579e-14
-6.850000e+00 3.594075e-14
-6.840000e+00 4.459753e-14
-6.830000e+00 5.272722e-14
-6.820000e+00 6.012233e-14
-6.810000e+00 6.658168e-14
-6.800000e+00 7.191532e-14
-6.790000e+00 7.594945e-14
-6.780000e+00 7.853114e-14
-6.770000e+00 7.953295e-14
-6.760000e+00 7.885694e-14
-6.750000e+00 7.643839e-14
-6.740000e+00 7.224881e-14
-6.730000e+00 6.629825e-14
-6.720000e+00 5.863693e-14
-6.710000e+00 4.935576e-14
-6.700000e+00 3.858623e-14
-6.690000e+00 2.649911e-14
-6.680000e+00 1.330229e-14
-6.670000e+00 -7.623917e-16
-6.660000e+00 -1.542322e-14
-6.650000e+00 -3.038358e-14
-6.640000e+00 -4.532774e-14
-6.630000e+00 -5.992730e-14
-6.620000e+00 -7.384824e-14
-6.610000e+00 -8.675838e-14
-6.600000e+00 -9.833511e-14
-6.590000e+00 -1.082732e-13
-6.580000e+00 -1.162926e-13
-6.570000e+00 -1.221456e-13
-6.560000e+00 -1.256242e-13
-6.550000e+00 -1.265663e-13
-6.540000e+00 -1.248609e-13
-6.530000e+00 -1.204528e-13
-6.520000e+00 -1.133457e-13
-6.510000e+00 -1.036047e-13
-6.500000e+00 -9.135611e-14
-6.490000e+00 -7.678743e-14
-6.480000e+00 -6.014459e-14
-6.470000e+00 -4.172834e-14
-6.460000e+00 -2.188894e-14
-6.450000e+00 -1.019652e-15
-6.440000e+00 2.045117e-14
-6.430000e+00 4.206902e-14
-6.420000e+00 6.336311e-14
-6.410000e+00 8.385701e-14
-6.400000e+00 1.030797e-13
-6.390000e+00 1.205768e-13
-6.380000e+00 1.359219e-13
-6.370000e+00 1.487276e-13
-6.360000e+00 1.586554e-13
-6.350000e+00 1.654256e-13
-6.340000e+00 1.688252e-13
-6.330000e+00 1.687147e-13
-6.320000e+00 1.650337e-13
-6.310000e+00 1.578039e-13
-6.300000e+00 1.471310e-13
-6.290000e+00 1.332037e-13
-6.280000e+00 1.162917e-13
-6.270000e+00 9.674020e-14
-6.260000e+00 7.496393e-14
-6.250000e+00 5.143809e-14
-6.240000e+00 2.668806e-14
-6.230000e+00 1.277544e-15
-6.220000e+00 -2.420464e-14
-6.210000e+00 -4.915873e-14
-6.200000e+00 -7.298878e-14
-6.190000e+00 -9.511781e-14
-6.180000e+00 -1.150027e-13
-6.170000e+00 -1.321487e-13
-6.160000e+00 -1.461232e-13
-6.150000e+00 -1.565679e-13
-6.140000e+00 -1.632099e-13
-6.130000e+00 -1.658706e-13
-6.120000e+00 -1.644720e-13
-6.110000e+00 -1.590419e-13
-6.100000e+00 -1.497148e-13
-6.090000e+00 -1.367319e-13
-6.080000e+00 -1.204368e-13
-6.070000e+00 -1.012696e-13
-6.060000e+00 -7.975830e-14
-6.050000e+00 -5.650702e-14
-6.040000e+00 -3.218314e-14
-6.030000e+00 -7.501824e-15
-6.020000e+00 1.679061e-14
-6.010000e+00 3.993455e-14
-6.000000e+00 6.117555e-14
-5.990000e+00 7.978300e-14
-5.980000e+00 9.506852e-14
-5.970000e+00 1.064035e-13
-5.960000e+00 1.132355e-13
-5.950000e+00 1.151029e-13
-5.940000e+00 1.116474e-13
-5.930000e+00 1.026244e-13
-5.920000e+00 8.790976e-14
-5.910000e+00 6.750477e-14
-5.900000e+00 4.153694e-14
-5.890000e+00 1.025807e-14
-5.880000e+00 -2.596102e-14
-5.870000e+00 -6.663886e-14
-5.860000e+00 -1.111947e-13
-5.850000e+00 -1.589625e-13
-5.840000e+00 -2.092073e-13
-5.830000e+00 -2.611434e-13
-5.820000e+00 -3.139541e-13
-5.810000e+00 -3.668129e-13
-5.800000e+00 -4.189039e-13
-5.790000e+00 -4.694434e-13
-5.780000e+00 -5.176997e-13
-5.770000e+00 -5.630127e-13
-5.760000e+00 -6.048110e-13
-5.750000e+00 -6.426266e-13
-5.740000e+00 -6.761079e-13
-5.730000e+00 -7.050285e-13
-5.720000e+00 -7.292938e-13
-5.710000e+00 -7.489431e-13
-5.700000e+00 -7.641489e-13
-5.690000e+00 -7.752122e-13
-5.680000e+00 -7.825546e-13
-5.670000e+00 -7.867066e-13
-5.660000e+00 -7.882940e-13
-5.650000e+00 -7.880202e-13
-5.640000e+00 -7.866473e-13
-5.630000e+00 -7.849758e-13
-5.620000e+00 -7.838221e-13
-5.610000e+00 -7.839966e-13
-5.600000e+00 -7.862811e-13
-5.590000e+00 -7.914075e-13
-5.580000e+00 -8.000371e-13
-5.570000e+00 -8.127429e-13
-5.560000e+00 -8.299932e-13
-5.550000e+00 -8.521380e-13
-5.540000e+00 -8.794000e-13
-5.530000e+00 -9.118672e-13
-5.520000e+00 -9.494909e-13
-5.510000e+00 -9.920863e-13
-5.500000e+00 -1.039337e-12
-5.490000e+00 -1.090805e-12
-5.480000e+00 -1.145939e-12
-5.470000e+00 -1.204094e-12
-5.460000e+00 -1.264545e-12
-5.450000e+00 -1.326509e-12
-5.440000e+00 -1.389167e-12
-5.430000e+00 -1.451685e-12
-5.420000e+00 -1.513239e-12
-5.410000e+00 -1.573036e-12
-5.400000e+00 -1.630337e-12
-5.390000e+00 -1.684480e-12
-5.380000e+00 -1.734897e-12
-5.370000e+00 -1.781130e-12
-5.360000e+00 -1.822846e-12
-5.350000e+00 -1.859846e-12
-5.340000e+00 -1.892073e-12
-5.330000e+00 -1.919613e-12
-5.320000e+00 -1.942697e-12
-5.310000e+00 -1.961692e-12
-5.300000e+00 -1.977098e-12
-5.290000e+00 -1.989531e-12
-5.280000e+00 -1.999712e-12
-5.270000e+00 -2.008444e-12
-5.260000e+00 -2.016600e-12
-5.250000e+00 -2.025092e-12
-5.240000e+00 -2.034855e-12
-5.230000e+00 -2.046821e-12
-5.220000e+00 -2.061896e-12
-5.210000e+00 -2.080936e-12
-5.200000e+00 -2.104727e-12
-5.190000e+00 -2.133965e-12
-5.180000e+00 -2.169239e-12
-5.170000e+00 -2.211014e-12
-5.160000e+00 -2.259625e-12
-5.150000e+00 -2.315263e-12
-5.140000e+00 -2.377973e-12
-5.130000e+00 -2.447656e-12
-5.120000e+00 -2.524065e-12
-5.110000e+00 -2.606818e-12
-5.100000e+00 -2.695405e-12
-5.090000e+00 -2.789200e-12
-5.080000e+00 -2.887476e-12
-5.070000e+00 -2.989428e-12
-5.060000e+00 -3.094185e-12
-5.050000e+00 -3.200837e-12
-5.040000e+00 -3.308453e-12
-5.030000e+00 -3.416108e-12
-5.020000e+00 -3.522899e-12
-5.010000e+00 -3.627969e-12
-5.000000e+00 -3.730529e-12
-4.990000e+00 -3.829873e-12
-4.980000e+00 -3.925395e-12
-4.970000e+00 -4.016603e-12
-4.960000e+00 -4.103128e-12
-4.950000e+00 -4.184737e-12
-4.940000e+00 -4.261333e-12
-4.930000e+00 -4.332958e-12
-4.920000e+00 -4.399794e-12
-4.910000e+00 -4.462157e-12
-4.900000e+00 -4.520488e-12
-4.890000e+00 -4.575350e-12
-4.880000e+00 -4.627408e-12
-4.870000e+00 -4.677423e-12
-4.860000e+00 -4.726229e-12
-4.850000e+00 -4.774721e-12
-4.840000e+00 -4.823837e-12
-4.830000e+00 -4.874537e-12
-4.820000e+00 -4.927787e-12
-4.810000e+00 -4.984539e-12
-4.800000e+00 -5.045715e-12
-4.790000e+00 -5.112191e-12
-4.780000e+00 -5.184779e-12
-4.770000e+00 -5.264217e-12
-4.760000e+00 -5.351151e-12
-4.750000e+00 -5.446134e-12
-4.740000e+00 -5.549607e-12
-4.730000e+00 -5.661903e-12
-4.720000e+00 -5.783236e-12
-4.710000e+00 -5.913704e-12
-4.700000e+00 -6.053289e-12
-4.690000e+00 -6.201857e-12
-4.680000e+00 -6.359165e-12
-4.670000e+00 -6.524870e-12
-4.660000e+00 -6.698533e-12
-4.650000e+00 -6.879629e-12
-4.640000e+00 -7.067564e-12
-4.630000e+00 -7.261678e-12
-4.620000e+00 -7.461264e-12
-4.610000e+00 -7.665584e-12
-4.600000e+00 -7.873875e-12
-4.590000e+00 -8.085368e-12
-4.580000e+00 -8.299301e-12
-4.570000e+00 -8.514932e-12
-4.560000e+00 -8.731549e-12
-4.550000e+00 -8.948489e-12
-4.540000e+00 -9.165140e-12
-4.530000e+00 -9.380957e-12
-4.520000e+00 -9.595466e-12
-4.510000e+00 -9.808273e-12
-4.500000e+00 -1.001907e-11
-4.490000e+00 -1.022763e-11
-4.480000e+00 -1.043384e-11
-4.470000e+00 -1.063763e-11
-4.460000e+00 -1.083907e-11
-4.450000e+00 -1.103829e-11
-4.440000e+00 -1.123551e-11
-4.430000e+00 -1.143100e-11
-4.420000e+00 -1.162515e-11
-4.410000e+00 -1.181836e-11
-4.400000e+00 -1.201113e-11
-4.390000e+00 -1.220396e-11
-4.380000e+00 -1.239742e-11
-4.370000e+00 -1.259210e-11
-4.360000e+00 -1.278860e-11
-4.350000e+00 -1.298753e-11
-4.340000e+00 -1.318950e-11
-4.330000e+00 -1.339514e-11
-4.320000e+00 -1.360503e-11
-4.310000e+00 -1.381977e-11
-4.300000e+00 -1.403992e-11
-4.290000e+00 -1.426601e-11
-4.280000e+00 -1.449859e-11
-4.270000e+00 -1.473813e-11
-4.260000e+00 -1.498512e-11
-4.250000e+00 -1.524000e-11
-4.240000e+00 -1.550320e-11
-4.230000e+00 -1.577514e-11
-4.220000e+00 -1.605623e-11
-4.210000e+00 -1.634683e-11
-4.200000e+00 -1.664734e-11
-4.190000e+00 -1.695811e-11
-4.180000e+00 -1.727949e-11
-4.170000e+00 -1.761184e-11
-4.160000e+00 -1.795548e-11
-4.150000e+00 -1.831073e-11
-4.140000e+00 -1.867788e-11
-4.130000e+00 -1.905720e-11
-4.120000e+00 -1.944891e-11
-4.110000e+00 -1.985319e-11
-4.100000e+00 -2.027017e-11
-4.090000e+00 -2.069990e-11
-4.080000e+00 -2.114236e-11
-4.070000e+00 -2.159744e-11
-4.060000e+00 -2.206493e-11
-4.050000e+00 -2.254450e-11
-4.040000e+00 -2.303571e-11
-4.030000e+00 -2.353799e-11
-4.020000e+00 -2.405065e-11
-4.010000e+00 -2.457287e-11
-4.000000e+00 -2.510372e-11
-3.990000e+00 -2.564214e-11
-3.980000e+00 -2.618697e-11
-3.970000e+00 -2.673698e-11
-3.960000e+00 -2.729087e-11
-3.950000e+00 -2.784729e-11
-3.940001e+00 -2.840489e-11
-3.930000e+00 -2.896235e-11
-3.920000e+00 -2.951839e-11
-3.910000e+00 -3.007184e-11
-3.900001e+00 -3.062165e-11
-3.890000e+00 -3.116695e-11
-3.880000e+00 -3.170706e-11
-3.870000e+00 -3.224155e-11
-3.860001e+00 -3.277027e-11
-3.850000e+00 -3.329335e-11
-3.840000e+00 -3.381126e-11
-3.830000e+00 -3.432478e-11
-3.820001e+00 -3.483505e-11
-3.810000e+00 -3.534355e-11
-3.800000e+00 -3.585208e-11
-3.790000e+00 -3.636276e-11
-3.780000e+00 -3.687800e-11
-3.770000e+00 -3.740044e-11
-3.760000e+00 -3.793294e-11
-3.750000e+00 -3.847852e-11
-3.740000e+00 -3.904027e-11
-3.730000e+00 -3.962133e-11
-3.720000e+00 -4.022479e-11
-3.710000e+00 -4.085364e-11
-3.700000e+00 -4.151067e-11
-3.690001e+00 -4.219844e-11
-3.680000e+00 -4.291919e-11
-3.670000e+00 -4.367477e-11
-3.660000e+00 -4.446660e-11
-3.650001e+00 -4.529564e-11
-3.640000e+00 -4.616230e-11
-3.630000e+00 -4.706647e-11
-3.620000e+00 -4.800751e-11
-3.610001e+00 -4.898420e-11
-3.600000e+00 -4.999480e-11
-3.590000e+00 -5.103708e-11
-3.580000e+00 -5.210836e-11
-3.570001e+00 -5.320554e-11
-3.560000e+00 -5.432521e-11
-3.550000e+00 -5.546370e-11
-3.540000e+00 -5.661719e-11
-3.530000e+00 -5.778179e-11
-3.520000e+00 -5.895365e-11
-3.510000e+00 -6.012906e-11
-3.500000e+00 -6.130452e-11
-3.490000e+00 -6.247690e-11
-3.480000e+00 -6.364346e-11
-3.470000e+00 -6.480198e-11
-3.460000e+00 -6.595081e-11
-3.450000e+00 -6.708890e-11
-3.440001e+00 -6.821594e-11
-3.430000e+00 -6.933223e-11
-3.420000e+00 -7.043885e-11
-3.410000e+00 -7.153751e-11
-3.400001e+00 -7.263062e-11
-3.390000e+00 -7.372118e-11
-3.380000e+00 -7.481276e-11
-3.370000e+00 -7.590940e-11
-3.360001e+00 -7.701551e-11
-3.350000e+00 -7.813580e-11
-3.340000e+00 -7.927513e-11
-3.330000e+00 -8.043841e-11
-3.320001e+00 -8.163051e-11
-3.310000e+00 -8.285609e-11
-3.300000e+00 -8.411952e-11
-3.290000e+00 -8.542477e-11
-3.280000e+00 -8.677530e-11
-3.270000e+00 -8.817400e-11
-3.260000e+00 -8.962308e-11
-3.250000e+00 -9.112407e-11
-3.240000e+00 -9.267778e-11
-3.230000e+00 -9.428421e-11
-3.220000e+00 -9.594267e-11
-3.210000e+00 -9.765175e-11
-3.200000e+00 -9.940937e-11
-3.190001e+00 -1.012128e-10
-3.180000e+00 -1.030589e-10
-3.170000e+00 -1.049441e-10
-3.160000e+00 -1.068642e-10
-3.150001e+00 -1.088153e-10
-3.140000e+00 -1.107929e-10
-3.130000e+00 -1.127931e-10
-3.120000e+00 -1.148116e-10
-3.110001e+00 -1.168447e-10
-3.100000e+00 -1.188891e-10
-3.090000e+00 -1.209419e-10
-3.080000e+00 -1.230006e-10
-3.070001e+00 -1.250637e-10
-3.060000e+00 -1.271300e-10
-3.050000e+00 -1.291993e-10
-3.040000e+00 -1.312720e-10
-3.030000e+00 -1.333493e-10
-3.020000e+00 -1.354330e-10
-3.010000e+00 -1.375257e-10
-3.000000e+00 -1.396303e-10
-2.990000e+00 -1.417505e-10
-2.980000e+00 -1.438903e-10
-2.970000e+00 -1.460541e-10
-2.960000e+00 -1.482464e-10
-2.950000e+00 -1.504718e-10
-2.940001e+00 -1.527350e-10
-2.930000e+00 -1.550406e-10
-2.920000e+00 -1.573928e-10
-2.910000e+00 -1.597956e-10
-2.900001e+00 -1.622527e-10
-2.890000e+00 -1.647670e-10
-2.880000e+00 -1.673413e-10
-2.870000e+00 -1.699775e-10
-2.860001e+00 -1.726770e-10
-2.850000e+00 -1.754406e-10
-2.840000e+00 -1.782685e-10
-2.830000e+00 -1.811603e-10
-2.820001e+00 -1.841151e-10
-2.810000e+00 -1.871316e-10
-2.800000e+00 -1.902078e-10
-2.790000e+00 -1.933417e-10
-2.780000e+00 -1.965307e-10
-2.770000e+00 -1.997724e-10
-2.760000e+00 -2.030639e-10
-2.750000e+00 -2.064027e-10
-2.740000e+00 -2.097859e-10
-2.730000e+00 -2.132112e-10
-2.720000e+00 -2.166763e-10
-2.710000e+00 -2.201791e-10
-2.700000e+00 -2.237180e-10
-2.690001e+00 -2.272916e-10
-2.680000e+00 -2.308991e-10
-2.670000e+00 -2.345399e-10
-2.660000e+00 -2.382139e-10
-2.650001e+00 -2.419213e-10
-2.640000e+00 -2.456629e-10
-2.630000e+00 -2.494396e-10
-2.620000e+00 -2.532527e-10
-2.610001e+00 -2.571039e-10
-2.600000e+00 -2.609949e-10
-2.590000e+00 -2.649278e-10
-2.580000e+00 -2.689046e-10
-2.570001e+00 -2.729277e-10
-2.560000e+00 -2.769991e-10
-2.550000e+00 -2.811214e-10
-2.540000e+00 -2.852966e-10
-2.530001e+00 -2.895271e-10
-2.520000e+00 -2.938148e-10
-2.510000e+00 -2.981618e-10
-2.500000e+00 -3.025700e-10
-2.490000e+00 -3.070411e-10
-2.480000e+00 -3.115770e-10
-2.470000e+00 -3.161791e-10
-2.460000e+00 -3.208490e-10
-2.450000e+00 -3.255881e-10
-2.440001e+00 -3.303978e-10
-2.430000e+00 -3.352794e-10
-2.420000e+00 -3.402342e-10
-2.410000e+00 -3.452635e-10
-2.400001e+00 -3.503685e-10
-2.390000e+00 -3.555505e-10
-2.380000e+00 -3.608109e-10
-2.370000e+00 -3.661507e-10
-2.360001e+00 -3.715712e-10
-2.350000e+00 -3.770738e-10
-2.340000e+00 -3.826594e-10
-2.330000e+00 -3.883293e-10
-2.320001e+00 -3.940844e-10
-2.310000e+00 -3.999257e-10
-2.300000e+00 -4.058540e-10
-2.290000e+00 -4.118699e-10
-2.280001e+00 -4.179738e-10
-2.270000e+00 -4.241662e-10
-2.260000e+00 -4.304470e-10
-2.250000e+00 -4.368162e-10
-2.240000e+00 -4.432737e-10
-2.230000e+00 -4.498189e-10
-2.220000e+00 -4.564511e-10
-2.210000e+00 -4.631697e-10
-2.200000e+00 -4.699737e-10
-2.190001e+00 -4.768623e-10
-2.180000e+00 -4.838345e-10
-2.170000e+00 -4.908892e-10
-2.160000e+00 -4.980256e-10
-2.150001e+00 -5.052428e-10
-2.140000e+00 -5.125401e-10
-2.130000e+00 -5.199171e-10
-2.120000e+00 -5.273735e-10
-2.110001e+00 -5.349093e-10
-2.100000e+00 -5.425249e-10
-2.090000e+00 -5.502209e-10
-2.080000e+00 -5.579983e-10
-2.070001e+00 -5.658585e-10
-2.060000e+00 -5.738033e-10
-2.050000e+00 -5.818345e-10
-2.040000e+00 -5.899546e-10
-2.030001e+00 -5.981660e-10
-2.020000e+00 -6.064717e-10
-2.010000e+00 -6.148746e-10
-2.000000e+00 -6.233778e-10
-1.990000e+00 -6.319846e-10
-1.980000e+00 -6.406982e-10
-1.970000e+00 -6.495217e-10
-1.960000e+00 -6.584582e-10
-1.950000e+00 -6.675107e-10
-1.940001e+00 -6.766818e-10
-1.930000e+00 -6.859739e-10
-1.920000e+00 -6.953895e-10
-1.910000e+00 -7.049302e-10
-1.900001e+00 -7.145978e-10
-1.890000e+00 -7.243935e-10
-1.880000e+00 -7.343184e-10
-1.870000e+00 -7.443731e-10
-1.860001e+00 -7.545580e-10
-1.850000e+00 -7.648736e-10
-1.840000e+00 -7.753197e-10
-1.830000e+00 -7.858963e-10
-1.820001e+00 -7.966032e-10
-1.810000e+00 -8.074402e-10
-1.800000e+00 -8.184072e-10
-1.790000e+00 -8.295041e-10
-1.780001e+00 -8.407309e-10
-1.770000e+00 -8.520879e-10
-1.760000e+00 -8.635753e-10
-1.750000e+00 -8.751939e-10
-1.740000e+00 -8.869444e-10
-1.730000e+00 -8.988279e-10
-1.720000e+00 -9.108457e-10
-1.710000e+00 -9.229995e-10
-1.700000e+00 -9.352906e-10
-1.690001e+00 -9.477216e-10
-1.680000e+00 -9.602942e-10
-1.670000e+00 -9.730106e-10
-1.660000e+00 -9.858729e-10
-1.650001e+00 -9.988835e-10
-1.640000e+00 -1.012045e-09
-1.630000e+00 -1.025358e-09
-1.620000e+00 -1.038826e-09
-1.610001e+00 -1.052451e-09
-1.600000e+00 -1.066233e-09
-1.590000e+00 -1.080176e-09
-1.580000e+00 -1.094278e-09
-1.570001e+00 -1.108543e-09
-1.560000e+00 -1.122970e-09
-1.550000e+00 -1.137560e-09
-1.540000e+00 -1.152314e-09
-1.530001e+00 -1.167232e-09
-1.520000e+00 -1.182313e-09
-1.510000e+00 -1.197560e-09
-1.500000e+00 -1.212971e-09
-1.490000e+00 -1.228546e-09
-1.480000e+00 -1.244287e-09
-1.470000e+00 -1.260193e-09
-1.460000e+00 -1.276266e-09
-1.450000e+00 -1.292505e-09
-1.440001e+00 -1.308914e-09
-1.430000e+00 -1.325492e-09
-1.420000e+00 -1.342241e-09
-1.410000e+00 -1.359164e-09
-1.400001e+00 -1.376263e-09
-1.390000e+00 -1.393540e-09
-1.380000e+00 -1.410998e-09
-1.370000e+00 -1.428639e-09
-1.360001e+00 -1.446468e-09
-1.350000e+00 -1.464487e-09
-1.340000e+00 -1.482699e-09
-1.330000e+00 -1.501108e-09
-1.320001e+00 -1.519716e-09
-1.310000e+00 -1.538526e-09
-1.300000e+00 -1.557542e-09
-1.290000e+00 -1.576765e-09
-1.280001e+00 -1.596198e-09
-1.270000e+00 -1.615843e-09
-1.260000e+00 -1.635701e-09
-1.250000e+00 -1.655774e-09
-1.240000e+00 -1.676063e-09
-1.230000e+00 -1.696568e-09
-1.220000e+00 -1.717291e-09
-1.210000e+00 -1.738231e-09
-1.200000e+00 -1.759389e-09