-0.102788 1.022305e-04
-0.102663 1.007351e-04
-0.102538 9.923319e-05
-0.102413 9.772471e-05
-0.102288 9.620983e-05
-0.102163 9.468868e-05
-0.102038 9.316138e-05
-0.101913 9.162806e-05
-0.101788 9.008885e-05
-0.101663 8.854386e-05
-0.101538 8.699323e-05
-0.101413 8.543707e-05
-0.101288 8.387553e-05
-0.101163 8.230872e-05
-0.101038 8.073678e-05
-0.100913 7.915982e-05
-0.100788 7.757799e-05
-0.100663 7.599140e-05
-0.100538 7.440019e-05
-0.100413 7.280448e-05
-0.100288 7.120440e-05
-0.100163 6.960009e-05
-0.100038 6.799167e-05
-0.099913 6.637927e-05
-0.099788 6.476302e-05
-0.099663 6.314305e-05
-0.099538 6.151949e-05
-0.099413 5.989248e-05
-0.099288 5.826213e-05
-0.099163 5.662859e-05
-0.099038 5.499199e-05
-0.098913 5.335244e-05
-0.098788 5.171009e-05
-0.098663 5.006507e-05
-0.098538 4.841751e-05
-0.098413 4.676753e-05
-0.098288 4.511528e-05
-0.098163 4.346088e-05
-0.098038 4.180446e-05
-0.097913 4.014615e-05
-0.097788 3.848609e-05
-0.097663 3.682441e-05
-0.097538 3.516123e-05
-0.097413 3.349670e-05
-0.097288 3.183094e-05
-0.097163 3.016408e-05
-0.097038 2.849625e-05
-0.096913 2.682760e-05
-0.096788 2.515824e-05
-0.096663 2.348830e-05
-0.096538 2.181793e-05
-0.096413 2.014725e-05
-0.096288 1.847639e-05
-0.096163 1.680549e-05
-0.096038 1.513466e-05
-0.095913 1.346406e-05
-0.095788 1.179379e-05
-0.095663 1.012400e-05
-0.095538 8.454822e-06
-0.095413 6.786375e-06
-0.095288 5.118794e-06
-0.095163 3.452208e-06
-0.095038 1.786746e-06
-0.094913 1.225380e-07
-0.094788 -1.540287e-06
-0.094663 -3.201600e-06
-0.094538 -4.861273e-06
-0.094413 -6.519177e-06
-0.094288 -8.175184e-06
-0.094163 -9.829166e-06
-0.094038 -1.148100e-05
-0.093913 -1.313055e-05
-0.093788 -1.477769e-05
-0.093663 -1.642230e-05
-0.093538 -1.806425e-05
-0.093413 -1.970342e-05
-0.093288 -2.133967e-05
-0.093163 -2.297289e-05
-0.093038 -2.460294e-05
-0.092913 -2.622971e-05
-0.092788 -2.785307e-05
-0.092663 -2.947290e-05
-0.092538 -3.108906e-05
-0.092413 -3.270145e-05
-0.092288 -3.430993e-05
-0.092163 -3.591438e-05
-0.092038 -3.751469e-05
-0.091913 -3.911072e-05
-0.091788 -4.070237e-05
-0.091663 -4.228950e-05
-0.091538 -4.387200e-05
-0.091413 -4.544976e-05
-0.091288 -4.702264e-05
-0.091163 -4.859053e-05
-0.091038 -5.015332e-05
-0.090913 -5.171088e-05
-0.090788 -5.326310e-05
-0.090663 -5.480987e-05
-0.090538 -5.635106e-05
-0.090413 -5.788656e-05
-0.090288 -5.941625e-05
-0.090163 -6.094003e-05
-0.090038 -6.245777e-05
-0.089913 -6.396937e-05
-0.089788 -6.547470e-05
-0.089663 -6.697367e-05
-0.089538 -6.846616e-05
-0.089413 -6.995205e-05
-0.089288 -7.143124e-05
-0.089163 -7.290361e-05
-0.089038 -7.436906e-05
-0.088913 -7.582748e-05
-0.088788 -7.727877e-05
-0.088663 -7.872280e-05
-0.088538 -8.015949e-05
-0.088413 -8.158872e-05
-0.088288 -8.301039e-05
-0.088163 -8.442438e-05
-0.088038 -8.583061e-05
-0.087913 -8.722897e-05
-0.087788 -8.861934e-05
-0.087663 -9.000165e-05
-0.087538 -9.137577e-05
-0.087413 -9.274161e-05
-0.087288 -9.409908e-05
-0.087163 -9.544807e-05
-0.087038 -9.678848e-05
-0.086913 -9.812023e-05
-0.086788 -9.944320e-05
-0.086663 -1.007573e-04
-0.086538 -1.020625e-04
-0.086413 -1.033586e-04
-0.086288 -1.046455e-04
-0.086163 -1.059232e-04
-0.086038 -1.071916e-04
-0.085913 -1.084506e-04
-0.085788 -1.097001e-04
-0.085663 -1.109399e-04
-0.085538 -1.121701e-04
-0.085413 -1.133905e-04
-0.085288 -1.146010e-04
-0.085163 -1.158016e-04
-0.085038 -1.169922e-04
-0.084913 -1.181726e-04
-0.084788 -1.193428e-04
-0.084663 -1.205028e-04
-0.084538 -1.216524e-04
-0.084413 -1.227915e-04
-0.084288 -1.239201e-04
-0.084163 -1.250382e-04
-0.084038 -1.261455e-04
-0.083913 -1.272421e-04
-0.083788 -1.283278e-04
-0.083663 -1.294027e-04
-0.083538 -1.304665e-04
-0.083413 -1.315193e-04
-0.083288 -1.325610e-04
-0.083163 -1.335914e-04
-0.083038 -1.346106e-04
-0.082913 -1.356185e-04
-0.082788 -1.366149e-04
-0.082663 -1.375999e-04
-0.082538 -1.385733e-04
-0.082413 -1.395351e-04
-0.082288 -1.404852e-04
-0.082163 -1.414236e-04
-0.082038 -1.423502e-04
-0.081913 -1.432650e-04
-0.081788 -1.441678e-04
-0.081663 -1.450586e-04
-0.081538 -1.459374e-04
-0.081413 -1.468040e-04
-0.081288 -1.476585e-04
-0.081163 -1.485008e-04
-0.081038 -1.493309e-04
-0.080913 -1.501486e-04
-0.080788 -1.509539e-04
-0.080663 -1.517468e-04
-0.080538 -1.525273e-04
-0.080413 -1.532951e-04
-0.080288 -1.540505e-04
-0.080163 -1.547932e-04
-0.080038 -1.555232e-04
-0.079913 -1.562405e-04
-0.079788 -1.569450e-04
-0.079663 -1.576367e-04
-0.079538 -1.583156e-04
-0.079413 -1.589816e-04
-0.079288 -1.596347e-04
-0.079163 -1.602748e-04
-0.079038 -1.609018e-04
-0.078913 -1.615159e-04
-0.078788 -1.621168e-04
-0.078663 -1.627046e-04
-0.078538 -1.632793e-04
-0.078413 -1.638408e-04
-0.078288 -1.643890e-04
-0.078163 -1.649240e-04
-0.078038 -1.654458e-04
-0.077913 -1.659542e-04
-0.077788 -1.664493e-04
-0.077663 -1.669310e-04
-0.077538 -1.673993e-04
-0.077413 -1.678542e-04
-0.077288 -1.682957e-04
-0.077163 -1.687237e-04
-0.077038 -1.691382e-04
-0.076913 -1.695393e-04
-0.076788 -1.699268e-04
-0.076663 -1.703007e-04
-0.076538 -1.706611e-04
-0.076413 -1.710079e-04
-0.076288 -1.713412e-04
-0.076163 -1.716608e-04
-0.076038 -1.719668e-04
-0.075913 -1.722592e-04
-0.075788 -1.725379e-04
-0.075663 -1.728030e-04
-0.075538 -1.730545e-04
-0.075413 -1.732922e-04
-0.075288 -1.735163e-04
-0.075163 -1.737268e-04
-0.075038 -1.739235e-04
-0.074913 -1.741065e-04
-0.074788 -1.742759e-04
-0.074663 -1.744316e-04
-0.074538 -1.745735e-04
-0.074413 -1.747018e-04
-0.074288 -1.748164e-04
-0.074163 -1.749173e-04
-0.074038 -1.750046e-04
-0.073913 -1.750781e-04
-0.073788 -1.751380e-04
-0.073663 -1.751842e-04
-0.073538 -1.752168e-04
-0.073413 -1.752358e-04
-0.073288 -1.752411e-04
-0.073163 -1.752327e-04
-0.073038 -1.752108e-04
-0.072913 -1.751753e-04
-0.072788 -1.751262e-04
-0.072663 -1.750635e-04
-0.072538 -1.749872e-04
-0.072413 -1.748975e-04
-0.072288 -1.747942e-04
-0.072163 -1.746775e-04
-0.072038 -1.745472e-04
-0.071913 -1.744035e-04
-0.071788 -1.742464e-04
-0.071663 -1.740759e-04
-0.071538 -1.738920e-04
-0.071413 -1.736948e-04
-0.071288 -1.734842e-04
-0.071163 -1.732603e-04
-0.071038 -1.730232e-04
-0.070913 -1.727728e-04
-0.070788 -1.725092e-04
-0.070663 -1.722325e-04
-0.070538 -1.719426e-04
-0.070413 -1.716395e-04
-0.070288 -1.713235e-04
-0.070163 -1.709943e-04
-0.070038 -1.706522e-04
-0.069913 -1.702971e-04
-0.069788 -1.699291e-04
-0.069663 -1.695482e-04
-0.069538 -1.691545e-04
-0.069413 -1.687479e-04
-0.069288 -1.683286e-04
-0.069163 -1.678966e-04
-0.069038 -1.674519e-04
-0.068913 -1.669946e-04
-0.068788 -1.665247e-04
-0.068663 -1.660423e-04
-0.068538 -1.655474e-04
-0.068413 -1.650401e-04
-0.068288 -1.645204e-04
-0.068163 -1.639883e-04
-0.068038 -1.634440e-04
-0.067913 -1.628874e-04
-0.067788 -1.623187e-04
-0.067663 -1.617379e-04
-0.067538 -1.611450e-04
-0.067413 -1.605400e-04
-0.067288 -1.599232e-04
-0.067163 -1.592944e-04
-0.067038 -1.586538e-04
-0.066913 -1.580015e-04
-0.066788 -1.573374e-04
-0.066663 -1.566617e-04
-0.066538 -1.559744e-04
-0.066413 -1.552756e-04
-0.066288 -1.545653e-04
-0.066163 -1.538437e-04
-0.066038 -1.531107e-04
-0.065913 -1.523664e-04
-0.065788 -1.516110e-04
-0.065663 -1.508444e-04
-0.065538 -1.500668e-04
-0.065413 -1.492781e-04
-0.065288 -1.484786e-04
-0.065163 -1.476683e-04
-0.065038 -1.468471e-04
-0.064913 -1.460153e-04
-0.064788 -1.451728e-04
-0.064663 -1.443198e-04
-0.064538 -1.434563e-04
-0.064413 -1.425825e-04
-0.064288 -1.416983e-04
-0.064163 -1.408038e-04
-0.064038 -1.398992e-04
-0.063913 -1.389846e-04
-0.063788 -1.380599e-04
-0.063663 -1.371253e-04
-0.063538 -1.361808e-04
-0.063413 -1.352266e-04
-0.063288 -1.342627e-04
-0.063163 -1.332892e-04
-0.063038 -1.323062e-04
-0.062913 -1.313138e-04
-0.062788 -1.303120e-04
-0.062663 -1.293010e-04
-0.062538 -1.282808e-04
-0.062413 -1.272515e-04
-0.062288 -1.262132e-04
-0.062163 -1.251661e-04
-0.062038 -1.241101e-04
-0.061913 -1.230453e-04
-0.061788 -1.219720e-04
-0.061663 -1.208901e-04
-0.061538 -1.197997e-04
-0.061413 -1.187010e-04
-0.061288 -1.175940e-04
-0.061163 -1.164788e-04
-0.061038 -1.153556e-04
-0.060913 -1.142243e-04
-0.060788 -1.130852e-04
-0.060663 -1.119383e-04
-0.060538 -1.107836e-04
-0.060413 -1.096214e-04
-0.060288 -1.084516e-04
-0.060163 -1.072745e-04
-0.060038 -1.060900e-04
-0.059913 -1.048983e-04
-0.059788 -1.036994e-04
-0.059663 -1.024936e-04
-0.059538 -1.012809e-04
-0.059413 -1.000613e-04
-0.059288 -9.883498e-05
-0.059163 -9.760206e-05
-0.059038 -9.636263e-05
-0.058913 -9.511678e-05
-0.058788 -9.386463e-05
-0.058663 -9.260626e-05
-0.058538 -9.134178e-05
-0.058413 -9.007131e-05
-0.058288 -8.879493e-05
-0.058163 -8.751276e-05
-0.058038 -8.622489e-05
-0.057913 -8.493144e-05
-0.057788 -8.363251e-05
-0.057663 -8.232821e-05
-0.057538 -8.101863e-05
-0.057413 -7.970390e-05
-0.057288 -7.838410e-05
-0.057163 -7.705936e-05
-0.057038 -7.572977e-05
-0.056913 -7.439545e-05
-0.056788 -7.305649e-05
-0.056663 -7.171302e-05
-0.056538 -7.036514e-05
-0.056413 -6.901295e-05
-0.056288 -6.765657e-05
-0.056163 -6.629610e-05
-0.056038 -6.493166e-05
-0.055913 -6.356334e-05
-0.055788 -6.219127e-05
-0.055663 -6.081555e-05
-0.055538 -5.943629e-05
-0.055413 -5.805360e-05
-0.055288 -5.666759e-05
-0.055163 -5.527838e-05
-0.055038 -5.388607e-05
-0.054913 -5.249077e-05
-0.054788 -5.109259e-05
-0.054663 -4.969165e-05
-0.054538 -4.828805e-05
-0.054413 -4.688191e-05
-0.054288 -4.547334e-05
-0.054163 -4.406245e-05
-0.054038 -4.264935e-05
-0.053913 -4.123415e-05
-0.053788 -3.981696e-05
-0.053663 -3.839790e-05
-0.053538 -3.697708e-05
-0.053413 -3.555461e-05
-0.053288 -3.413060e-05
-0.053163 -3.270515e-05
-0.053038 -3.127840e-05
-0.052913 -2.985044e-05
-0.052788 -2.842138e-05
-0.052663 -2.699135e-05
-0.052538 -2.556045e-05
-0.052413 -2.412879e-05
-0.052288 -2.269648e-05
-0.052163 -2.126364e-05
-0.052038 -1.983038e-05
-0.051913 -1.839680e-05
-0.051788 -1.696303e-05
-0.051663 -1.552917e-05
-0.051538 -1.409533e-05
-0.051413 -1.266163e-05
-0.051288 -1.122817e-05
-0.051163 -9.795066e-06
-0.051038 -8.362430e-06
-0.050913 -6.930371e-06
-0.050788 -5.499001e-06
-0.050663 -4.068429e-06
-0.050538 -2.638765e-06
-0.050413 -1.210120e-06
-0.050288 2.173960e-07
-0.050163 1.643674e-06
-0.050038 3.068605e-06
-0.049913 4.492078e-06
-0.049788 5.913986e-06
-0.049663 7.334218e-06
-0.049538 8.752667e-06
-0.049413 1.016922e-05
-0.049288 1.158378e-05
-0.049163 1.299623e-05
-0.049038 1.440646e-05
-0.048913 1.581437e-05
-0.048788 1.721985e-05
-0.048663 1.862280e-05
-0.048538 2.002310e-05
-0.048413 2.142064e-05
-0.048288 2.281534e-05
-0.048163 2.420707e-05
-0.048038 2.559574e-05
-0.047913 2.698123e-05
-0.047788 2.836345e-05
-0.047663 2.974228e-05
-0.047538 3.111763e-05
-0.047413 3.248940e-05
-0.047288 3.385747e-05
-0.047163 3.522175e-05
-0.047038 3.658213e-05
-0.046913 3.793851e-05
-0.046788 3.929079e-05
-0.046663 4.063887e-05
-0.046538 4.198265e-05
-0.046413 4.332202e-05
-0.046288 4.465689e-05
-0.046163 4.598716e-05
-0.046038 4.731273e-05
-0.045913 4.863350e-05
-0.045788 4.994936e-05
-0.045663 5.126023e-05
-0.045538 5.256601e-05
-0.045413 5.386660e-05
-0.045288 5.516190e-05
-0.045163 5.645181e-05
-0.045038 5.773625e-05
-0.044913 5.901512e-05
-0.044788 6.028832e-05
-0.044663 6.155575e-05
-0.044538 6.281734e-05
-0.044413 6.407297e-05
-0.044288 6.532257e-05
-0.044163 6.656604e-05
-0.044038 6.780328e-05
-0.043913 6.903421e-05
-0.043788 7.025874e-05
-0.043663 7.147678e-05
-0.043538 7.268824e-05
-0.043413 7.389302e-05
-0.043288 7.509105e-05
-0.043163 7.628224e-05
-0.043038 7.746650e-05
-0.042913 7.864374e-05
-0.042788 7.981388e-05
-0.042663 8.097684e-05
-0.042538 8.213252e-05
-0.042413 8.328085e-05
-0.042288 8.442175e-05
-0.042163 8.555513e-05
-0.042038 8.668091e-05
-0.041913 8.779901e-05
-0.041788 8.890935e-05
-0.041663 9.001185e-05
-0.041538 9.110643e-05
-0.041413 9.219302e-05
-0.041288 9.327153e-05
-0.041163 9.434190e-05
-0.041038 9.540403e-05
-0.040913 9.645787e-05
-0.040788 9.750333e-05
-0.040663 9.854034e-05
-0.040538 9.956883e-05
-0.040413 1.005887e-04
-0.040288 1.015999e-04
-0.040163 1.026024e-04
-0.040038 1.035961e-04
-0.039913 1.045809e-04
-0.039788 1.055568e-04
-0.039663 1.065236e-04
-0.039538 1.074814e-04
-0.039413 1.084300e-04
-0.039288 1.093694e-04
-0.039163 1.102995e-04
-0.039038 1.112203e-04
-0.038913 1.121316e-04
-0.038788 1.130335e-04
-0.038663 1.139259e-04
-0.038538 1.148087e-04
-0.038413 1.156818e-04
-0.038288 1.165452e-04
-0.038163 1.173988e-04
-0.038038 1.182427e-04
-0.037913 1.190766e-04
-0.037788 1.199006e-04
-0.037663 1.207146e-04
-0.037538 1.215185e-04
-0.037413 1.223123e-04
-0.037288 1.230960e-04
-0.037163 1.238695e-04
-0.037038 1.246327e-04
-0.036913 1.253856e-04
-0.036788 1.261281e-04
-0.036663 1.268602e-04
-0.036538 1.275819e-04
-0.036413 1.282930e-04
-0.036288 1.289936e-04
-0.036163 1.296837e-04
-0.036038 1.303630e-04
-0.035913 1.310317e-04
-0.035788 1.316897e-04
-0.035663 1.323368e-04
-0.035538 1.329732e-04
-0.035413 1.335987e-04
-0.035288 1.342134e-04
-0.035163 1.348171e-04
-0.035038 1.354098e-04
-0.034913 1.359915e-04
-0.034788 1.365622e-04
-0.034663 1.371218e-04
-0.034538 1.376703e-04
-0.034413 1.382077e-04
-0.034288 1.387339e-04
-0.034163 1.392489e-04
-0.034038 1.397527e-04
-0.033913 1.402452e-04
-0.033788 1.407263e-04
-0.033663 1.411962e-04
-0.033538 1.416548e-04
-0.033413 1.421019e-04
-0.033288 1.425377e-04
-0.033163 1.429620e-04
-0.033038 1.433749e-04
-0.032913 1.437763e-04
-0.032788 1.441662e-04
-0.032663 1.445446e-04
-0.032538 1.449115e-04
-0.032413 1.452668e-04
-0.032288 1.456106e-04
-0.032163 1.459428e-04
-0.032038 1.462633e-04
-0.031913 1.465723e-04
-0.031788 1.468696e-04
-0.031663 1.471553e-04
-0.031538 1.474293e-04
-0.031413 1.476917e-04
-0.031288 1.479424e-04
-0.031163 1.481814e-04
-0.031038 1.484087e-04
-0.030913 1.486243e-04
-0.030788 1.488281e-04
-0.030663 1.490203e-04
-0.030538 1.492007e-04
-0.030413 1.493694e-04
-0.030288 1.495264e-04
-0.030163 1.496717e-04
-0.030038 1.498052e-04
-0.029913 1.499270e-04
-0.029788 1.500370e-04
-0.029663 1.501353e-04
-0.029538 1.502219e-04
-0.029413 1.502967e-04
-0.029288 1.503598e-04
-0.029163 1.504112e-04
-0.029038 1.504509e-04
-0.028913 1.504789e-04
-0.028788 1.504952e-04
-0.028663 1.504998e-04
-0.028538 1.504926e-04
-0.028413 1.504739e-04
-0.028288 1.504434e-04
-0.028163 1.504014e-04
-0.028038 1.503476e-04
-0.027913 1.502823e-04
-0.027788 1.502053e-04
-0.027663 1.501168e-04
-0.027538 1.500166e-04
-0.027413 1.499050e-04
-0.027288 1.497817e-04
-0.027163 1.496470e-04
-0.027038 1.495007e-04
-0.026913 1.493430e-04
-0.026788 1.491738e-04
-0.026663 1.489932e-04
-0.026538 1.488011e-04
-0.026413 1.485977e-04
-0.026288 1.483828e-04
-0.026163 1.481567e-04
-0.026038 1.479192e-04
-0.025913 1.476705e-04
-0.025788 1.474105e-04
-0.025663 1.471392e-04
-0.025538 1.468568e-04
-0.025413 1.465632e-04
-0.025288 1.462585e-04
-0.025163 1.459426e-04
-0.025038 1.456157e-04
-0.024913 1.452778e-04
-0.024788 1.449288e-04
-0.024663 1.445689e-04
-0.024538 1.441981e-04
-0.024413 1.438164e-04
-0.024288 1.434238e-04
-0.024163 1.430204e-04
-0.024038 1.426062e-04
-0.023913 1.421813e-04
-0.023788 1.417457e-04
-0.023663 1.412995e-04
-0.023538 1.408426e-04
-0.023413 1.403752e-04
-0.023288 1.398973e-04
-0.023163 1.394089e-04
-0.023038 1.389101e-04
-0.022913 1.384009e-04
-0.022788 1.378814e-04
-0.022663 1.373516e-04
-0.022538 1.368115e-04
-0.022413 1.362613e-04
-0.022288 1.357009e-04
-0.022163 1.351305e-04
-0.022038 1.345500e-04
-0.021913 1.339596e-04
-0.021788 1.333592e-04
-0.021663 1.327490e-04
-0.021538 1.321289e-04
-0.021413 1.314991e-04
-0.021288 1.308596e-04
-0.021163 1.302105e-04
-0.021038 1.295517e-04
-0.020913 1.288835e-04
-0.020788 1.282057e-04
-0.020663 1.275186e-04
-0.020538 1.268221e-04
-0.020413 1.261163e-04
-0.020288 1.254013e-04
-0.020163 1.246771e-04
-0.020038 1.239439e-04
-0.019913 1.232016e-04
-0.019788 1.224503e-04
-0.019663 1.216901e-04
-0.019538 1.209211e-04
-0.019413 1.201433e-04
-0.019288 1.193568e-04
-0.019163 1.185616e-04
-0.019038 1.177579e-04
-0.018913 1.169457e-04
-0.018788 1.161251e-04
-0.018663 1.152961e-04
-0.018538 1.144588e-04
-0.018413 1.136132e-04
-0.018288 1.127596e-04
-0.018163 1.118978e-04
-0.018038 1.110280e-04
-0.017913 1.101504e-04
-0.017788 1.092648e-04
-0.017663 1.083715e-04
-0.017538 1.074705e-04
-0.017413 1.065618e-04
-0.017288 1.056456e-04
-0.017163 1.047219e-04
-0.017038 1.037908e-04
-0.016913 1.028523e-04
-0.016788 1.019067e-04
-0.016663 1.009538e-04
-0.016538 9.999388e-05
-0.016413 9.902693e-05
-0.016288 9.805306e-05
-0.016163 9.707234e-05
-0.016038 9.608486e-05
-0.015913 9.509068e-05
-0.015788 9.408990e-05
-0.015663 9.308260e-05
-0.015538 9.206886e-05
-0.015413 9.104876e-05
-0.015288 9.002239e-05
-0.015163 8.898983e-05
-0.015038 8.795117e-05
-0.014913 8.690648e-05
-0.014788 8.585587e-05
-0.014663 8.479940e-05
-0.014538 8.373717e-05
-0.014413 8.266926e-05
-0.014288 8.159577e-05
-0.014163 8.051677e-05
-0.014038 7.943235e-05
-0.013913 7.834261e-05
-0.013788 7.724763e-05
-0.013663 7.614749e-05
-0.013538 7.504229e-05
-0.013413 7.393212e-05
-0.013288 7.281707e-05
-0.013163 7.169722e-05
-0.013038 7.057266e-05
-0.012913 6.944349e-05
-0.012788 6.830980e-05
-0.012663 6.717167e-05
-0.012538 6.602920e-05
-0.012413 6.488248e-05
-0.012288 6.373160e-05
-0.012163 6.257666e-05
-0.012038 6.141773e-05
-0.011913 6.025493e-05
-0.011788 5.908833e-05
-0.011663 5.791804e-05
-0.011538 5.674414e-05
-0.011413 5.556672e-05
-0.011288 5.438589e-05
-0.011163 5.320173e-05
-0.011038 5.201435e-05
-0.010913 5.082382e-05
-0.010788 4.963025e-05
-0.010663 4.843373e-05
-0.010538 4.723435e-05
-0.010413 4.603221e-05
-0.010288 4.482741e-05
-0.010163 4.362003e-05
-0.010038 4.241018e-05
-0.009913 4.119795e-05
-0.009788 3.998342e-05
-0.009663 3.876671e-05
-0.009538 3.754790e-05
-0.009413 3.632709e-05
-0.009288 3.510437e-05
-0.009163 3.387984e-05
-0.009038 3.265360e-05
-0.008913 3.142573e-05
-0.008788 3.019635e-05
-0.008663 2.896553e-05
-0.008538 2.773338e-05
-0.008413 2.650000e-05
-0.008288 2.526547e-05
-0.008163 2.402990e-05
-0.008038 2.279337e-05
-0.007913 2.155600e-05
-0.007788 2.031786e-05
-0.007663 1.907907e-05
-0.007538 1.783970e-05
-0.007413 1.659986e-05
-0.007288 1.535965e-05
-0.007163 1.411916e-05
-0.007038 1.287848e-05
-0.006913 1.163772e-05
-0.006788 1.039696e-05
-0.006663 9.156296e-06
-0.006538 7.915833e-06
-0.006413 6.675661e-06
-0.006288 5.435875e-06
-0.006163 4.196571e-06
-0.006038 2.957842e-06
-0.005913 1.719784e-06
-0.005788 4.824915e-07
-0.005663 -7.539418e-07
-0.005538 -1.989421e-06
-0.005413 -3.223853e-06
-0.005288 -4.457143e-06
-0.005163 -5.689198e-06
-0.005038 -6.919924e-06
-0.004913 -8.149227e-06
-0.004788 -9.377014e-06
-0.004663 -1.060319e-05
-0.004538 -1.182767e-05
-0.004413 -1.305035e-05
-0.004288 -1.427115e-05
-0.004163 -1.548997e-05
-0.004038 -1.670671e-05
-0.003913 -1.792130e-05
-0.003788 -1.913363e-05
-0.003663 -2.034361e-05
-0.003538 -2.155116e-05
-0.003413 -2.275618e-05
-0.003288 -2.395859e-05
-0.003163 -2.515829e-05
-0.003038 -2.635519e-05
-0.002913 -2.754920e-05
-0.002788 -2.874023e-05
-0.002663 -2.992820e-05
-0.002538 -3.111302e-05
-0.002413 -3.229459e-05
-0.002288 -3.347284e-05
-0.002163 -3.464766e-05
-0.002038 -3.581898e-05
-0.001913 -3.698670e-05
-0.001788 -3.815075e-05
-0.001663 -3.931103e-05
-0.001538 -4.046746e-05
-0.001413 -4.161994e-05
-0.001288 -4.276841e-05
-0.001163 -4.391277e-05
-0.001038 -4.505293e-05
-0.000913 -4.618882e-05
-0.000788 -4.732035e-05
-0.000663 -4.844743e-05
-0.000538 -4.956999e-05
-0.000413 -5.068794e-05
-0.000288 -5.180120e-05
-0.000163 -5.290968e-05
-0.000038 -5.401331e-05
0.000087 -5.511200e-05
0.000212 -5.620568e-05
0.000337 -5.729426e-05
0.000462 -5.837767e-05
0.000587 -5.945582e-05
0.000712 -6.052864e-05
0.000837 -6.159605e-05
0.000962 -6.265797e-05
0.001087 -6.371433e-05
0.001212 -6.476504e-05
0.001337 -6.581004e-05
0.001462 -6.684924e-05
0.001587 -6.788257e-05
0.001712 -6.890996e-05
0.001837 -6.993133e-05
0.001962 -7.094661e-05
0.002087 -7.195572e-05
0.002212 -7.295860e-05
0.002337 -7.395517e-05
0.002462 -7.494536e-05
0.002587 -7.592910e-05
0.002712 -7.690631e-05
0.002837 -7.787694e-05
0.002962 -7.884090e-05
0.003087 -7.979814e-05
0.003212 -8.074857e-05
0.003337 -8.169214e-05
0.003462 -8.262878e-05
0.003587 -8.355842e-05
0.003712 -8.448100e-05
0.003837 -8.539645e-05
0.003962 -8.630470e-05
0.004087 -8.720569e-05
0.004212 -8.809937e-05
0.004337 -8.898565e-05
0.004462 -8.986450e-05
0.004587 -9.073583e-05
0.004712 -9.159959e-05
0.004837 -9.245573e-05
0.004962 -9.330418e-05
0.005087 -9.414487e-05
0.005212 -9.497777e-05
0.005337 -9.580279e-05
0.005462 -9.661990e-05
0.005587 -9.742903e-05
0.005712 -9.823012e-05
0.005837 -9.902313e-05
0.005962 -9.980799e-05
0.006087 -1.005847e-04
0.006212 -1.013531e-04
0.006337 -1.021132e-04
0.006462 -1.028649e-04
0.006587 -1.036083e-04
0.006712 -1.043432e-04
0.006837 -1.050696e-04
0.006962 -1.057874e-04
0.007087 -1.064967e-04
0.007212 -1.071972e-04
0.007337 -1.078891e-04
0.007462 -1.085723e-04
0.007587 -1.092466e-04
0.007712 -1.099121e-04
0.007837 -1.105688e-04
0.007962 -1.112165e-04
0.008087 -1.118552e-04
0.008212 -1.124850e-04
0.008337 -1.131057e-04
0.008462 -1.137173e-04
0.008587 -1.143197e-04
0.008712 -1.149131e-04
0.008837 -1.154972e-04
0.008962 -1.160720e-04
0.009087 -1.166376e-04
0.009212 -1.171939e-04
0.009337 -1.177408e-04
0.009462 -1.182783e-04
0.009587 -1.188064e-04
0.009712 -1.193250e-04
0.009837 -1.198342e-04
0.009962 -1.203338e-04
0.010087 -1.208239e-04
0.010212 -1.213044e-04
0.010337 -1.217753e-04
0.010462 -1.222366e-04
0.010587 -1.226882e-04
0.010712 -1.231301e-04
0.010837 -1.235623e-04
0.010962 -1.239847e-04
0.011087 -1.243974e-04
0.011212 -1.248003e-04
0.011337 -1.251933e-04
0.011462 -1.255766e-04
0.011587 -1.259499e-04
0.011712 -1.263134e-04
0.011837 -1.266670e-04
0.011962 -1.270106e-04
0.012087 -1.273443e-04
0.012212 -1.276681e-04
0.012337 -1.279818e-04
0.012462 -1.282856e-04
0.012587 -1.285794e-04
0.012712 -1.288631e-04
0.012837 -1.291368e-04
0.012962 -1.294005e-04
0.013087 -1.296541e-04
0.013212 -1.298976e-04
0.013337 -1.301311e-04
0.013462 -1.303544e-04
0.013587 -1.305676e-04
0.013712 -1.307707e-04
0.013837 -1.309637e-04
0.013962 -1.311466e-04
0.014087 -1.313193e-04
0.014212 -1.314819e-04
0.014337 -1.316343e-04
0.014462 -1.317766e-04
0.014587 -1.319088e-04
0.014712 -1.320308e-04
0.014837 -1.321426e-04
0.014962 -1.322442e-04
0.015087 -1.323358e-04
0.015212 -1.324171e-04
0.015337 -1.324883e-04
0.015462 -1.325493e-04
0.015587 -1.326002e-04
0.015712 -1.326410e-04
0.015837 -1.326716e-04
0.015962 -1.326920e-04
0.016087 -1.327023e-04
0.016212 -1.327025e-04
0.016337 -1.326926e-04
0.016462 -1.326726e-04
0.016587 -1.326425e-04
0.016712 -1.326023e-04
0.016837 -1.325520e-04
0.016962 -1.324916e-04
0.017087 -1.324212e-04
0.017212 -1.323407e-04
0.017337 -1.322502e-04
0.017462 -1.321497e-04
0.017587 -1.320392e-04
0.017712 -1.319187e-04
0.017837 -1.317883e-04
0.017962 -1.316479e-04
0.018087 -1.314975e-04
0.018212 -1.313373e-04
0.018337 -1.311672e-04
0.018462 -1.309871e-04
0.018587 -1.307973e-04
0.018712 -1.305976e-04
0.018837 -1.303881e-04
0.018962 -1.301688e-04
0.019087 -1.299397e-04
0.019212 -1.297010e-04
0.019337 -1.294525e-04
0.019462 -1.291943e-04
0.019587 -1.289265e-04
0.019712 -1.286490e-04
0.019837 -1.283619e-04
0.019962 -1.280653e-04
0.020087 -1.277591e-04
0.020212 -1.274435e-04
0.020337 -1.271183e-04
0.020462 -1.267837e-04
0.020587 -1.264397e-04
0.020712 -1.260862e-04
0.020837 -1.257235e-04
0.020962 -1.253514e-04
0.021087 -1.249701e-04
0.021212 -1.245795e-04
0.021337 -1.241797e-04
0.021462 -1.237707e-04
0.021587 -1.233526e-04
0.021712 -1.229254e-04
0.021837 -1.224892e-04
0.021962 -1.220439e-04
0.022087 -1.215897e-04
0.022212 -1.211265e-04
0.022337 -1.206545e-04
0.022462 -1.201736e-04
0.022587 -1.196839e-04
0.022712 -1.191854e-04
0.022837 -1.186782e-04
0.022962 -1.181624e-04
0.023087 -1.176379e-04
0.023212 -1.171049e-04
0.023337 -1.165633e-04
0.023462 -1.160132e-04
0.023587 -1.154547e-04
0.023712 -1.148879e-04
0.023837 -1.143126e-04
0.023962 -1.137291e-04
0.024087 -1.131374e-04
0.024212 -1.125375e-04
0.024337 -1.119294e-04
0.024462 -1.113133e-04
0.024587 -1.106891e-04
0.024712 -1.100569e-04
0.024837 -1.094169e-04
0.024962 -1.087689e-04
0.025087 -1.081132e-04
0.025212 -1.074497e-04
0.025337 -1.067785e-04
0.025462 -1.060997e-04
0.025587 -1.054132e-04
0.025712 -1.047193e-04
0.025837 -1.040179e-04
0.025962 -1.033090e-04
0.026087 -1.025928e-04
0.026212 -1.018694e-04
0.026337 -1.011387e-04
0.026462 -1.004008e-04
0.026587 -9.965580e-05
0.026712 -9.890378e-05
0.026837 -9.814477e-05
0.026962 -9.737883e-05
0.027087 -9.660605e-05
0.027212 -9.582646e-05
0.027337 -9.504015e-05
0.027462 -9.424718e-05
0.027587 -9.344760e-05
0.027712 -9.264149e-05
0.027837 -9.182892e-05
0.027962 -9.100994e-05
0.028087 -9.018463e-05
0.028212 -8.935306e-05
0.028337 -8.851528e-05
0.028462 -8.767138e-05
0.028587 -8.682141e-05
0.028712 -8.596546e-05
0.028837 -8.510357e-05
0.028962 -8.423584e-05
0.029087 -8.336232e-05
0.029212 -8.248310e-05
0.029337 -8.159823e-05
0.029462 -8.070779e-05
0.029587 -7.981185e-05
0.029712 -7.891049e-05
0.029837 -7.800377e-05
0.029962 -7.709178e-05
0.030087 -7.617457e-05
0.030212 -7.525224e-05
0.030337 -7.432484e-05
0.030462 -7.339246e-05
0.030587 -7.245517e-05
0.030712 -7.151304e-05
0.030837 -7.056615e-05
0.030962 -6.961458e-05
0.031087 -6.865840e-05
0.031212 -6.769768e-05
0.031337 -6.673251e-05
0.031462 -6.576295e-05
0.031587 -6.478909e-05
0.031712 -6.381101e-05
0.031837 -6.282878e-05
0.031962 -6.184247e-05
0.032087 -6.085217e-05
0.032212 -5.985796e-05
0.032337 -5.885991e-05
0.032462 -5.785810e-05
0.032587 -5.685261e-05
0.032712 -5.584352e-05
0.032837 -5.483091e-05
0.032962 -5.381486e-05
0.033087 -5.279544e-05
0.033212 -5.177275e-05
0.033337 -5.074685e-05
0.033462 -4.971783e-05
0.033587 -4.868577e-05
0.033712 -4.765075e-05
0.033837 -4.661285e-05
0.033962 -4.557215e-05
0.034087 -4.452873e-05
0.034212 -4.348268e-05
0.034337 -4.243407e-05
0.034462 -4.138299e-05
0.034587 -4.032951e-05
0.034712 -3.927373e-05
0.034837 -3.821572e-05
0.034962 -3.715556e-05
0.035087 -3.609333e-05
0.035212 -3.502913e-05
0.035337 -3.396302e-05
0.035462 -3.289510e-05
0.035587 -3.182544e-05
0.035712 -3.075413e-05
0.035837 -2.968125e-05
0.035962 -2.860688e-05
0.036087 -2.753111e-05
0.036212 -2.645401e-05
0.036337 -2.537567e-05
0.036462 -2.429618e-05
0.036587 -2.321561e-05
0.036712 -2.213406e-05
0.036837 -2.105159e-05
0.036962 -1.996830e-05
0.037087 -1.888426e-05
0.037212 -1.779957e-05
0.037337 -1.671430e-05
0.037462 -1.562853e-05
0.037587 -1.454236e-05
0.037712 -1.345585e-05
0.037837 -1.236910e-05
0.037962 -1.128218e-05
0.038087 -1.019519e-05
0.038212 -9.108195e-06
0.038337 -8.021285e-06
0.038462 -6.934541e-06
0.038587 -5.848047e-06
0.038712 -4.761884e-06
0.038837 -3.676134e-06
0.038962 -2.590879e-06
0.039087 -1.506203e-06
0.039212 -4.221852e-07
0.039337 6.610911e-07
0.039462 1.743545e-06
0.039587 2.825094e-06
0.039712 3.905658e-06
0.039837 4.985154e-06
0.039962 6.063503e-06
0.040087 7.140622e-06
0.040212 8.216432e-06
0.040337 9.290851e-06
0.040462 1.036380e-05
0.040587 1.143520e-05
0.040712 1.250496e-05
0.040837 1.357301e-05
0.040962 1.463928e-05
0.041087 1.570367e-05
0.041212 1.676611e-05
0.041337 1.782652e-05
0.041462 1.888483e-05
0.041587 1.994094e-05
0.041712 2.099479e-05
0.041837 2.204630e-05
0.041962 2.309539e-05
0.042087 2.414197e-05
0.042212 2.518598e-05
0.042337 2.622733e-05
0.042462 2.726596e-05
0.042587 2.830177e-05
0.042712 2.933470e-05
0.042837 3.036466e-05
0.042962 3.139159e-05
0.043087 3.241541e-05
0.043212 3.343604e-05
0.043337 3.445341e-05
0.043462 3.546743e-05
0.043587 3.647805e-05
0.043712 3.748518e-05
0.043837 3.848875e-05
0.043962 3.948868e-05
0.044087 4.048490e-05
0.044212 4.147735e-05
0.044337 4.246594e-05
0.044462 4.345061e-05
0.044587 4.443128e-05
0.044712 4.540789e-05
0.044837 4.638035e-05
0.044962 4.734861e-05
0.045087 4.831258e-05
0.045212 4.927220e-05
0.045337 5.022741e-05
0.045462 5.117812e-05
0.045587 5.212428e-05
0.045712 5.306581e-05
0.045837 5.400264e-05
0.045962 5.493471e-05
0.046087 5.586196e-05
0.046212 5.678430e-05
0.046337 5.770169e-05
0.046462 5.861404e-05
0.046587 5.952130e-05
0.046712 6.042341e-05
0.046837 6.132028e-05
0.046962 6.221187e-05
0.047087 6.309811e-05
0.047212 6.397893e-05
0.047337 6.485428e-05
0.047462 6.572408e-05
0.047587 6.658828e-05
0.047712 6.744682e-05
0.047837 6.829963e-05
0.047962 6.914666e-05
0.048087 6.998784e-05
0.048212 7.082311e-05
0.048337 7.165242e-05
0.048462 7.247571e-05
0.048587 7.329292e-05
0.048712 7.410398e-05
0.048837 7.490886e-05
0.048962 7.570748e-05
0.049087 7.649979e-05
0.049212 7.728574e-05
0.049337 7.806526e-05
0.049462 7.883832e-05
0.049587 7.960485e-05
0.049712 8.036479e-05
0.049837 8.111811e-05
0.049962 8.186474e-05
0.050087 8.260463e-05
0.050212 8.333773e-05
0.050337 8.406399e-05
0.050462 8.478336e-05
0.050587 8.549579e-05
0.050712 8.620123e-05
0.050837 8.689963e-05
0.050962 8.759095e-05
0.051087 8.827514e-05
0.051212 8.895215e-05
0.051337 8.962193e-05
0.051462 9.028444e-05
0.051587 9.093964e-05
0.051712 9.158747e-05
0.051837 9.222790e-05
0.051962 9.286088e-05
0.052087 9.348638e-05
0.052212 9.410434e-05
0.052337 9.471472e-05
0.052462 9.531749e-05
0.052587 9.591261e-05
0.052712 9.650003e-05
0.052837 9.707971e-05
0.052962 9.765163e-05
0.053087 9.821573e-05
0.053212 9.877199e-05
0.053337 9.932036e-05
0.053462 9.986081e-05
0.053587 1.003933e-04
0.053712 1.009178e-04
0.053837 1.014343e-04
0.053962 1.019427e-04
0.054087 1.024431e-04
0.054212 1.029353e-04
0.054337 1.034193e-04
0.054462 1.038952e-04
0.054587 1.043628e-04
0.054712 1.048223e-04
0.054837 1.052734e-04
0.054962 1.057162e-04
0.055087 1.061507e-04
0.055212 1.065769e-04
0.055337 1.069946e-04
0.055462 1.074040e-04
0.055587 1.078049e-04
0.055712 1.081973e-04
0.055837 1.085813e-04
0.055962 1.089568e-04
0.056087 1.093237e-04
0.056212 1.096821e-04
0.056337 1.100319e-04
0.056462 1.103731e-04
0.056587 1.107057e-04
0.056712 1.110297e-04
0.056837 1.113450e-04
0.056962 1.116517e-04
0.057087 1.119497e-04
0.057212 1.122390e-04
0.057337 1.125195e-04
0.057462 1.127913e-04
0.057587 1.130544e-04
0.057712 1.133087e-04
0.057837 1.135542e-04
0.057962 1.137910e-04
0.058087 1.140190e-04
0.058212 1.142381e-04
0.058337 1.144484e-04
0.058462 1.146499e-04
0.058587 1.148426e-04
0.058712 1.150264e-04