-0.102788 -1.884070e-02
-0.102663 -1.831593e-02
-0.102538 -1.778839e-02
-0.102413 -1.725815e-02
-0.102288 -1.672527e-02
-0.102163 -1.618980e-02
-0.102038 -1.565181e-02
-0.101913 -1.511135e-02
-0.101788 -1.456850e-02
-0.101663 -1.402330e-02
-0.101538 -1.347582e-02
-0.101413 -1.292612e-02
-0.101288 -1.237427e-02
-0.101163 -1.182033e-02
-0.101038 -1.126436e-02
-0.100913 -1.070642e-02
-0.100788 -1.014658e-02
-0.100663 -9.584899e-03
-0.100538 -9.021444e-03
-0.100413 -8.456278e-03
-0.100288 -7.889466e-03
-0.100163 -7.321073e-03
-0.100038 -6.751164e-03
-0.099913 -6.179804e-03
-0.099788 -5.607058e-03
-0.099663 -5.032993e-03
-0.099538 -4.457674e-03
-0.099413 -3.881168e-03
-0.099288 -3.303540e-03
-0.099163 -2.724858e-03
-0.099038 -2.145187e-03
-0.098913 -1.564595e-03
-0.098788 -9.831489e-04
-0.098663 -4.009152e-04
-0.098538 1.820386e-04
-0.098413 7.656452e-04
-0.098288 1.349837e-03
-0.098163 1.934547e-03
-0.098038 2.519706e-03
-0.097913 3.105248e-03
-0.097788 3.691105e-03
-0.097663 4.277208e-03
-0.097538 4.863489e-03
-0.097413 5.449881e-03
-0.097288 6.036316e-03
-0.097163 6.622725e-03
-0.097038 7.209040e-03
-0.096913 7.795194e-03
-0.096788 8.381118e-03
-0.096663 8.966743e-03
-0.096538 9.552002e-03
-0.096413 1.013683e-02
-0.096288 1.072115e-02
-0.096163 1.130490e-02
-0.096038 1.188801e-02
-0.095913 1.247042e-02
-0.095788 1.305205e-02
-0.095663 1.363284e-02
-0.095538 1.421272e-02
-0.095413 1.479163e-02
-0.095288 1.536949e-02
-0.095163 1.594623e-02
-0.095038 1.652180e-02
-0.094913 1.709611e-02
-0.094788 1.766912e-02
-0.094663 1.824074e-02
-0.094538 1.881092e-02
-0.094413 1.937958e-02
-0.094288 1.994666e-02
-0.094163 2.051209e-02
-0.094038 2.107581e-02
-0.093913 2.163775e-02
-0.093788 2.219785e-02
-0.093663 2.275603e-02
-0.093538 2.331224e-02
-0.093413 2.386641e-02
-0.093288 2.441848e-02
-0.093163 2.496837e-02
-0.093038 2.551603e-02
-0.092913 2.606139e-02
-0.092788 2.660439e-02
-0.092663 2.714497e-02
-0.092538 2.768306e-02
-0.092413 2.821859e-02
-0.092288 2.875151e-02
-0.092163 2.928176e-02
-0.092038 2.980926e-02
-0.091913 3.033397e-02
-0.091788 3.085581e-02
-0.091663 3.137473e-02
-0.091538 3.189067e-02
-0.091413 3.240357e-02
-0.091288 3.291336e-02
-0.091163 3.341999e-02
-0.091038 3.392340e-02
-0.090913 3.442353e-02
-0.090788 3.492032e-02
-0.090663 3.541371e-02
-0.090538 3.590365e-02
-0.090413 3.639008e-02
-0.090288 3.687294e-02
-0.090163 3.735217e-02
-0.090038 3.782772e-02
-0.089913 3.829954e-02
-0.089788 3.876757e-02
-0.089663 3.923175e-02
-0.089538 3.969203e-02
-0.089413 4.014836e-02
-0.089288 4.060069e-02
-0.089163 4.104896e-02
-0.089038 4.149311e-02
-0.088913 4.193310e-02
-0.088788 4.236889e-02
-0.088663 4.280040e-02
-0.088538 4.322761e-02
-0.088413 4.365045e-02
-0.088288 4.406887e-02
-0.088163 4.448284e-02
-0.088038 4.489230e-02
-0.087913 4.529720e-02
-0.087788 4.569750e-02
-0.087663 4.609315e-02
-0.087538 4.648411e-02
-0.087413 4.687033e-02
-0.087288 4.725176e-02
-0.087163 4.762837e-02
-0.087038 4.800010e-02
-0.086913 4.836692e-02
-0.086788 4.872878e-02
-0.086663 4.908564e-02
-0.086538 4.943747e-02
-0.086413 4.978422e-02
-0.086288 5.012584e-02
-0.086163 5.046231e-02
-0.086038 5.079359e-02
-0.085913 5.111962e-02
-0.085788 5.144039e-02
-0.085663 5.175585e-02
-0.085538 5.206597e-02
-0.085413 5.237070e-02
-0.085288 5.267002e-02
-0.085163 5.296390e-02
-0.085038 5.325229e-02
-0.084913 5.353517e-02
-0.084788 5.381251e-02
-0.084663 5.408426e-02
-0.084538 5.435041e-02
-0.084413 5.461093e-02
-0.084288 5.486578e-02
-0.084163 5.511493e-02
-0.084038 5.535836e-02
-0.083913 5.559604e-02
-0.083788 5.582794e-02
-0.083663 5.605404e-02
-0.083538 5.627432e-02
-0.083413 5.648874e-02
-0.083288 5.669729e-02
-0.083163 5.689994e-02
-0.083038 5.709667e-02
-0.082913 5.728746e-02
-0.082788 5.747228e-02
-0.082663 5.765113e-02
-0.082538 5.782397e-02
-0.082413 5.799080e-02
-0.082288 5.815158e-02
-0.082163 5.830631e-02
-0.082038 5.845497e-02
-0.081913 5.859754e-02
-0.081788 5.873401e-02
-0.081663 5.886437e-02
-0.081538 5.898859e-02
-0.081413 5.910668e-02
-0.081288 5.921861e-02
-0.081163 5.932437e-02
-0.081038 5.942396e-02
-0.080913 5.951736e-02
-0.080788 5.960457e-02
-0.080663 5.968558e-02
-0.080538 5.976037e-02
-0.080413 5.982895e-02
-0.080288 5.989131e-02
-0.080163 5.994744e-02
-0.080038 5.999733e-02
-0.079913 6.004099e-02
-0.079788 6.007842e-02
-0.079663 6.010960e-02
-0.079538 6.013453e-02
-0.079413 6.015323e-02
-0.079288 6.016567e-02
-0.079163 6.017188e-02
-0.079038 6.017185e-02
-0.078913 6.016557e-02
-0.078788 6.015306e-02
-0.078663 6.013432e-02
-0.078538 6.010935e-02
-0.078413 6.007816e-02
-0.078288 6.004075e-02
-0.078163 5.999713e-02
-0.078038 5.994730e-02
-0.077913 5.989128e-02
-0.077788 5.982908e-02
-0.077663 5.976070e-02
-0.077538 5.968616e-02
-0.077413 5.960546e-02
-0.077288 5.951862e-02
-0.077163 5.942565e-02
-0.077038 5.932656e-02
-0.076913 5.922137e-02
-0.076788 5.911009e-02
-0.076663 5.899273e-02
-0.076538 5.886932e-02
-0.076413 5.873988e-02
-0.076288 5.860440e-02
-0.076163 5.846293e-02
-0.076038 5.831547e-02
-0.075913 5.816205e-02
-0.075788 5.800268e-02
-0.075663 5.783738e-02
-0.075538 5.766619e-02
-0.075413 5.748911e-02
-0.075288 5.730618e-02
-0.075163 5.711742e-02
-0.075038 5.692285e-02
-0.074913 5.672249e-02
-0.074788 5.651638e-02
-0.074663 5.630454e-02
-0.074538 5.608699e-02
-0.074413 5.586377e-02
-0.074288 5.563491e-02
-0.074163 5.540042e-02
-0.074038 5.516035e-02
-0.073913 5.491472e-02
-0.073788 5.466356e-02
-0.073663 5.440691e-02
-0.073538 5.414479e-02
-0.073413 5.387725e-02
-0.073288 5.360431e-02
-0.073163 5.332601e-02
-0.073038 5.304238e-02
-0.072913 5.275346e-02
-0.072788 5.245928e-02
-0.072663 5.215989e-02
-0.072538 5.185532e-02
-0.072413 5.154560e-02
-0.072288 5.123077e-02
-0.072163 5.091088e-02
-0.072038 5.058597e-02
-0.071913 5.025606e-02
-0.071788 4.992121e-02
-0.071663 4.958146e-02
-0.071538 4.923684e-02
-0.071413 4.888740e-02
-0.071288 4.853319e-02
-0.071163 4.817424e-02
-0.071038 4.781060e-02
-0.070913 4.744231e-02
-0.070788 4.706942e-02
-0.070663 4.669198e-02
-0.070538 4.631002e-02
-0.070413 4.592361e-02
-0.070288 4.553277e-02
-0.070163 4.513757e-02
-0.070038 4.473805e-02
-0.069913 4.433425e-02
-0.069788 4.392623e-02
-0.069663 4.351403e-02
-0.069538 4.309772e-02
-0.069413 4.267732e-02
-0.069288 4.225290e-02
-0.069163 4.182451e-02
-0.069038 4.139220e-02
-0.068913 4.095602e-02
-0.068788 4.051602e-02
-0.068663 4.007225e-02
-0.068538 3.962478e-02
-0.068413 3.917364e-02
-0.068288 3.871891e-02
-0.068163 3.826062e-02
-0.068038 3.779884e-02
-0.067913 3.733361e-02
-0.067788 3.686501e-02
-0.067663 3.639307e-02
-0.067538 3.591786e-02
-0.067413 3.543943e-02
-0.067288 3.495785e-02
-0.067163 3.447316e-02
-0.067038 3.398542e-02
-0.066913 3.349470e-02
-0.066788 3.300105e-02
-0.066663 3.250452e-02
-0.066538 3.200518e-02
-0.066413 3.150309e-02
-0.066288 3.099830e-02
-0.066163 3.049088e-02
-0.066038 2.998087e-02
-0.065913 2.946836e-02
-0.065788 2.895338e-02
-0.065663 2.843601e-02
-0.065538 2.791630e-02
-0.065413 2.739431e-02
-0.065288 2.687012e-02
-0.065163 2.634376e-02
-0.065038 2.581532e-02
-0.064913 2.528484e-02
-0.064788 2.475240e-02
-0.064663 2.421804e-02
-0.064538 2.368185e-02
-0.064413 2.314387e-02
-0.064288 2.260416e-02
-0.064163 2.206280e-02
-0.064038 2.151984e-02
-0.063913 2.097535e-02
-0.063788 2.042939e-02
-0.063663 1.988202e-02
-0.063538 1.933331e-02
-0.063413 1.878331e-02
-0.063288 1.823210e-02
-0.063163 1.767972e-02
-0.063038 1.712626e-02
-0.062913 1.657177e-02
-0.062788 1.601631e-02
-0.062663 1.545995e-02
-0.062538 1.490275e-02
-0.062413 1.434477e-02
-0.062288 1.378608e-02
-0.062163 1.322675e-02
-0.062038 1.266682e-02
-0.061913 1.210638e-02
-0.061788 1.154548e-02
-0.061663 1.098418e-02
-0.061538 1.042255e-02
-0.061413 9.860655e-03
-0.061288 9.298553e-03
-0.061163 8.736310e-03
-0.061038 8.173989e-03
-0.060913 7.611652e-03
-0.060788 7.049364e-03
-0.060663 6.487186e-03
-0.060538 5.925181e-03
-0.060413 5.363413e-03
-0.060288 4.801945e-03
-0.060163 4.240838e-03
-0.060038 3.680154e-03
-0.059913 3.119958e-03
-0.059788 2.560310e-03
-0.059663 2.001272e-03
-0.059538 1.442907e-03
-0.059413 8.852756e-04
-0.059288 3.284402e-04
-0.059163 -2.275383e-04
-0.059038 -7.825985e-04
-0.058913 -1.336680e-03
-0.058788 -1.889721e-03
-0.058663 -2.441661e-03
-0.058538 -2.992441e-03
-0.058413 -3.542000e-03
-0.058288 -4.090277e-03
-0.058163 -4.637214e-03
-0.058038 -5.182751e-03
-0.057913 -5.726828e-03
-0.057788 -6.269387e-03
-0.057663 -6.810369e-03
-0.057538 -7.349716e-03
-0.057413 -7.887369e-03
-0.057288 -8.423270e-03
-0.057163 -8.957362e-03
-0.057038 -9.489589e-03
-0.056913 -1.001989e-02
-0.056788 -1.054821e-02
-0.056663 -1.107450e-02
-0.056538 -1.159869e-02
-0.056413 -1.212074e-02
-0.056288 -1.264058e-02
-0.056163 -1.315817e-02
-0.056038 -1.367344e-02
-0.055913 -1.418634e-02
-0.055788 -1.469682e-02
-0.055663 -1.520483e-02
-0.055538 -1.571030e-02
-0.055413 -1.621320e-02
-0.055288 -1.671346e-02
-0.055163 -1.721104e-02
-0.055038 -1.770588e-02
-0.054913 -1.819793e-02
-0.054788 -1.868714e-02
-0.054663 -1.917346e-02
-0.054538 -1.965684e-02
-0.054413 -2.013723e-02
-0.054288 -2.061458e-02
-0.054163 -2.108885e-02
-0.054038 -2.155997e-02
-0.053913 -2.202792e-02
-0.053788 -2.249263e-02
-0.053663 -2.295406e-02
-0.053538 -2.341217e-02
-0.053413 -2.386691e-02
-0.053288 -2.431823e-02
-0.053163 -2.476609e-02
-0.053038 -2.521044e-02
-0.052913 -2.565124e-02
-0.052788 -2.608845e-02
-0.052663 -2.652202e-02
-0.052538 -2.695191e-02
-0.052413 -2.737808e-02
-0.052288 -2.780049e-02
-0.052163 -2.821909e-02
-0.052038 -2.863385e-02
-0.051913 -2.904472e-02
-0.051788 -2.945166e-02
-0.051663 -2.985465e-02
-0.051538 -3.025363e-02
-0.051413 -3.064857e-02
-0.051288 -3.103943e-02
-0.051163 -3.142618e-02
-0.051038 -3.180878e-02
-0.050913 -3.218719e-02
-0.050788 -3.256138e-02
-0.050663 -3.293131e-02
-0.050538 -3.329695e-02
-0.050413 -3.365827e-02
-0.050288 -3.401524e-02
-0.050163 -3.436781e-02
-0.050038 -3.471596e-02
-0.049913 -3.505966e-02
-0.049788 -3.539888e-02
-0.049663 -3.573359e-02
-0.049538 -3.606375e-02
-0.049413 -3.638934e-02
-0.049288 -3.671034e-02
-0.049163 -3.702671e-02
-0.049038 -3.733842e-02
-0.048913 -3.764545e-02
-0.048788 -3.794778e-02
-0.048663 -3.824538e-02
-0.048538 -3.853822e-02
-0.048413 -3.882628e-02
-0.048288 -3.910954e-02
-0.048163 -3.938797e-02
-0.048038 -3.966155e-02
-0.047913 -3.993027e-02
-0.047788 -4.019409e-02
-0.047663 -4.045301e-02
-0.047538 -4.070699e-02
-0.047413 -4.095602e-02
-0.047288 -4.120009e-02
-0.047163 -4.143917e-02
-0.047038 -4.167325e-02
-0.046913 -4.190231e-02
-0.046788 -4.212633e-02
-0.046663 -4.234530e-02
-0.046538 -4.255921e-02
-0.046413 -4.276804e-02
-0.046288 -4.297177e-02
-0.046163 -4.317041e-02
-0.046038 -4.336392e-02
-0.045913 -4.355231e-02
-0.045788 -4.373555e-02
-0.045663 -4.391365e-02
-0.045538 -4.408658e-02
-0.045413 -4.425435e-02
-0.045288 -4.441695e-02
-0.045163 -4.457436e-02
-0.045038 -4.472658e-02
-0.044913 -4.487360e-02
-0.044788 -4.501541e-02
-0.044663 -4.515202e-02
-0.044538 -4.528342e-02
-0.044413 -4.540960e-02
-0.044288 -4.553057e-02
-0.044163 -4.564631e-02
-0.044038 -4.575682e-02
-0.043913 -4.586212e-02
-0.043788 -4.596218e-02
-0.043663 -4.605702e-02
-0.043538 -4.614664e-02
-0.043413 -4.623103e-02
-0.043288 -4.631020e-02
-0.043163 -4.638415e-02
-0.043038 -4.645289e-02
-0.042913 -4.651641e-02
-0.042788 -4.657473e-02
-0.042663 -4.662784e-02
-0.042538 -4.667575e-02
-0.042413 -4.671848e-02
-0.042288 -4.675602e-02
-0.042163 -4.678838e-02
-0.042038 -4.681558e-02
-0.041913 -4.683761e-02
-0.041788 -4.685449e-02
-0.041663 -4.686624e-02
-0.041538 -4.687285e-02
-0.041413 -4.687435e-02
-0.041288 -4.687074e-02
-0.041163 -4.686203e-02
-0.041038 -4.684824e-02
-0.040913 -4.682938e-02
-0.040788 -4.680547e-02
-0.040663 -4.677652e-02
-0.040538 -4.674255e-02
-0.040413 -4.670356e-02
-0.040288 -4.665959e-02
-0.040163 -4.661064e-02
-0.040038 -4.655673e-02
-0.039913 -4.649788e-02
-0.039788 -4.643411e-02
-0.039663 -4.636544e-02
-0.039538 -4.629189e-02
-0.039413 -4.621348e-02
-0.039288 -4.613023e-02
-0.039163 -4.604216e-02
-0.039038 -4.594929e-02
-0.038913 -4.585165e-02
-0.038788 -4.574926e-02
-0.038663 -4.564214e-02
-0.038538 -4.553031e-02
-0.038413 -4.541381e-02
-0.038288 -4.529266e-02
-0.038163 -4.516687e-02
-0.038038 -4.503649e-02
-0.037913 -4.490153e-02
-0.037788 -4.476203e-02
-0.037663 -4.461800e-02
-0.037538 -4.446948e-02
-0.037413 -4.431650e-02
-0.037288 -4.415909e-02
-0.037163 -4.399727e-02
-0.037038 -4.383108e-02
-0.036913 -4.366055e-02
-0.036788 -4.348571e-02
-0.036663 -4.330658e-02
-0.036538 -4.312321e-02
-0.036413 -4.293562e-02
-0.036288 -4.274385e-02
-0.036163 -4.254793e-02
-0.036038 -4.234789e-02
-0.035913 -4.214377e-02
-0.035788 -4.193561e-02
-0.035663 -4.172343e-02
-0.035538 -4.150728e-02
-0.035413 -4.128719e-02
-0.035288 -4.106319e-02
-0.035163 -4.083533e-02
-0.035038 -4.060364e-02
-0.034913 -4.036816e-02
-0.034788 -4.012892e-02
-0.034663 -3.988597e-02
-0.034538 -3.963934e-02
-0.034413 -3.938907e-02
-0.034288 -3.913520e-02
-0.034163 -3.887777e-02
-0.034038 -3.861683e-02
-0.033913 -3.835241e-02
-0.033788 -3.808454e-02
-0.033663 -3.781329e-02
-0.033538 -3.753868e-02
-0.033413 -3.726075e-02
-0.033288 -3.697956e-02
-0.033163 -3.669513e-02
-0.033038 -3.640752e-02
-0.032913 -3.611677e-02
-0.032788 -3.582292e-02
-0.032663 -3.552601e-02
-0.032538 -3.522610e-02
-0.032413 -3.492321e-02
-0.032288 -3.461740e-02
-0.032163 -3.430872e-02
-0.032038 -3.399720e-02
-0.031913 -3.368289e-02
-0.031788 -3.336584e-02
-0.031663 -3.304609e-02
-0.031538 -3.272370e-02
-0.031413 -3.239869e-02
-0.031288 -3.207113e-02
-0.031163 -3.174106e-02
-0.031038 -3.140853e-02
-0.030913 -3.107357e-02
-0.030788 -3.073625e-02
-0.030663 -3.039660e-02
-0.030538 -3.005468e-02
-0.030413 -2.971053e-02
-0.030288 -2.936420e-02
-0.030163 -2.901574e-02
-0.030038 -2.866520e-02
-0.029913 -2.831262e-02
-0.029788 -2.795805e-02
-0.029663 -2.760155e-02
-0.029538 -2.724316e-02
-0.029413 -2.688293e-02
-0.029288 -2.652091e-02
-0.029163 -2.615715e-02
-0.029038 -2.579169e-02
-0.028913 -2.542460e-02
-0.028788 -2.505591e-02
-0.028663 -2.468567e-02
-0.028538 -2.431395e-02
-0.028413 -2.394078e-02
-0.028288 -2.356621e-02
-0.028163 -2.319030e-02
-0.028038 -2.281310e-02
-0.027913 -2.243465e-02
-0.027788 -2.205501e-02
-0.027663 -2.167422e-02
-0.027538 -2.129234e-02
-0.027413 -2.090942e-02
-0.027288 -2.052550e-02
-0.027163 -2.014063e-02
-0.027038 -1.975488e-02
-0.026913 -1.936828e-02
-0.026788 -1.898088e-02
-0.026663 -1.859275e-02
-0.026538 -1.820392e-02
-0.026413 -1.781444e-02
-0.026288 -1.742438e-02
-0.026163 -1.703376e-02
-0.026038 -1.664266e-02
-0.025913 -1.625111e-02
-0.025788 -1.585917e-02
-0.025663 -1.546689e-02
-0.025538 -1.507431e-02
-0.025413 -1.468149e-02
-0.025288 -1.428847e-02
-0.025163 -1.389531e-02
-0.025038 -1.350205e-02
-0.024913 -1.310874e-02
-0.024788 -1.271543e-02
-0.024663 -1.232218e-02
-0.024538 -1.192903e-02
-0.024413 -1.153602e-02
-0.024288 -1.114321e-02
-0.024163 -1.075065e-02
-0.024038 -1.035838e-02
-0.023913 -9.966456e-03
-0.023788 -9.574920e-03
-0.023663 -9.183822e-03
-0.023538 -8.793211e-03
-0.023413 -8.403132e-03
-0.023288 -8.013635e-03
-0.023163 -7.624765e-03
-0.023038 -7.236570e-03
-0.022913 -6.849097e-03
-0.022788 -6.462391e-03
-0.022663 -6.076500e-03
-0.022538 -5.691470e-03
-0.022413 -5.307346e-03
-0.022288 -4.924175e-03
-0.022163 -4.542001e-03
-0.022038 -4.160870e-03
-0.021913 -3.780827e-03
-0.021788 -3.401916e-03
-0.021663 -3.024183e-03
-0.021538 -2.647670e-03
-0.021413 -2.272423e-03
-0.021288 -1.898485e-03
-0.021163 -1.525899e-03
-0.021038 -1.154709e-03
-0.020913 -7.849569e-04
-0.020788 -4.166858e-04
-0.020663 -4.993794e-05
-0.020538 3.152448e-04
-0.020413 6.788207e-04
-0.020288 1.040748e-03
-0.020163 1.400987e-03
-0.020038 1.759495e-03
-0.019913 2.116233e-03
-0.019788 2.471161e-03
-0.019663 2.824238e-03
-0.019538 3.175426e-03
-0.019413 3.524685e-03
-0.019288 3.871976e-03
-0.019163 4.217261e-03
-0.019038 4.560503e-03
-0.018913 4.901663e-03
-0.018788 5.240704e-03
-0.018663 5.577589e-03
-0.018538 5.912281e-03
-0.018413 6.244745e-03
-0.018288 6.574944e-03
-0.018163 6.902843e-03
-0.018038 7.228407e-03
-0.017913 7.551602e-03
-0.017788 7.872392e-03
-0.017663 8.190745e-03
-0.017538 8.506626e-03
-0.017413 8.820002e-03
-0.017288 9.130841e-03
-0.017163 9.439111e-03
-0.017038 9.744780e-03
-0.016913 1.004782e-02
-0.016788 1.034819e-02
-0.016663 1.064586e-02
-0.016538 1.094082e-02
-0.016413 1.123302e-02
-0.016288 1.152243e-02
-0.016163 1.180903e-02
-0.016038 1.209280e-02
-0.015913 1.237369e-02
-0.015788 1.265169e-02
-0.015663 1.292676e-02
-0.015538 1.319888e-02
-0.015413 1.346803e-02
-0.015288 1.373417e-02
-0.015163 1.399729e-02
-0.015038 1.425735e-02
-0.014913 1.451434e-02
-0.014788 1.476823e-02
-0.014663 1.501899e-02
-0.014538 1.526661e-02
-0.014413 1.551106e-02
-0.014288 1.575231e-02
-0.014163 1.599036e-02
-0.014038 1.622517e-02
-0.013913 1.645672e-02
-0.013788 1.668500e-02
-0.013663 1.690999e-02
-0.013538 1.713166e-02
-0.013413 1.735000e-02
-0.013288 1.756499e-02
-0.013163 1.777661e-02
-0.013038 1.798485e-02
-0.012913 1.818968e-02
-0.012788 1.839110e-02
-0.012663 1.858909e-02
-0.012538 1.878362e-02
-0.012413 1.897469e-02
-0.012288 1.916229e-02
-0.012163 1.934639e-02
-0.012038 1.952699e-02
-0.011913 1.970407e-02
-0.011788 1.987762e-02
-0.011663 2.004763e-02
-0.011538 2.021408e-02
-0.011413 2.037698e-02
-0.011288 2.053629e-02
-0.011163 2.069203e-02
-0.011038 2.084417e-02
-0.010913 2.099272e-02
-0.010788 2.113765e-02
-0.010663 2.127897e-02
-0.010538 2.141666e-02
-0.010413 2.155072e-02
-0.010288 2.168114e-02
-0.010163 2.180792e-02
-0.010038 2.193106e-02
-0.009913 2.205054e-02
-0.009788 2.216636e-02
-0.009663 2.227852e-02
-0.009538 2.238702e-02
-0.009413 2.249185e-02
-0.009288 2.259302e-02
-0.009163 2.269051e-02
-0.009038 2.278433e-02
-0.008913 2.287448e-02
-0.008788 2.296096e-02
-0.008663 2.304377e-02
-0.008538 2.312290e-02
-0.008413 2.319837e-02
-0.008288 2.327016e-02
-0.008163 2.333830e-02
-0.008038 2.340277e-02
-0.007913 2.346357e-02
-0.007788 2.352073e-02
-0.007663 2.357423e-02
-0.007538 2.362409e-02
-0.007413 2.367030e-02
-0.007288 2.371288e-02
-0.007163 2.375182e-02
-0.007038 2.378715e-02
-0.006913 2.381886e-02
-0.006788 2.384696e-02
-0.006663 2.387146e-02
-0.006538 2.389237e-02
-0.006413 2.390970e-02
-0.006288 2.392345e-02
-0.006163 2.393364e-02
-0.006038 2.394028e-02
-0.005913 2.394338e-02
-0.005788 2.394294e-02
-0.005663 2.393899e-02
-0.005538 2.393154e-02
-0.005413 2.392058e-02
-0.005288 2.390615e-02
-0.005163 2.388825e-02
-0.005038 2.386690e-02
-0.004913 2.384211e-02
-0.004788 2.381390e-02
-0.004663 2.378228e-02
-0.004538 2.374727e-02
-0.004413 2.370888e-02
-0.004288 2.366714e-02
-0.004163 2.362205e-02
-0.004038 2.357363e-02
-0.003913 2.352192e-02
-0.003788 2.346691e-02
-0.003663 2.340863e-02
-0.003538 2.334711e-02
-0.003413 2.328235e-02
-0.003288 2.321438e-02
-0.003163 2.314322e-02
-0.003038 2.306889e-02
-0.002913 2.299142e-02
-0.002788 2.291082e-02
-0.002663 2.282711e-02
-0.002538 2.274032e-02
-0.002413 2.265047e-02
-0.002288 2.255758e-02
-0.002163 2.246168e-02
-0.002038 2.236280e-02
-0.001913 2.226094e-02
-0.001788 2.215615e-02
-0.001663 2.204844e-02
-0.001538 2.193783e-02
-0.001413 2.182437e-02
-0.001288 2.170806e-02
-0.001163 2.158895e-02
-0.001038 2.146704e-02
-0.000913 2.134238e-02
-0.000788 2.121498e-02
-0.000663 2.108488e-02
-0.000538 2.095211e-02
-0.000413 2.081668e-02
-0.000288 2.067864e-02
-0.000163 2.053800e-02
-0.000038 2.039480e-02
0.000087 2.024907e-02
0.000212 2.010084e-02
0.000337 1.995013e-02
0.000462 1.979698e-02
0.000587 1.964142e-02
0.000712 1.948348e-02
0.000837 1.932319e-02
0.000962 1.916058e-02
0.001087 1.899568e-02
0.001212 1.882853e-02
0.001337 1.865916e-02
0.001462 1.848759e-02
0.001587 1.831387e-02
0.001712 1.813802e-02
0.001837 1.796008e-02
0.001962 1.778008e-02
0.002087 1.759805e-02
0.002212 1.741404e-02
0.002337 1.722806e-02
0.002462 1.704016e-02
0.002587 1.685038e-02
0.002712 1.665874e-02
0.002837 1.646528e-02
0.002962 1.627003e-02
0.003087 1.607303e-02
0.003212 1.587432e-02
0.003337 1.567394e-02
0.003462 1.547190e-02
0.003587 1.526826e-02
0.003712 1.506305e-02
0.003837 1.485631e-02
0.003962 1.464806e-02
0.004087 1.443835e-02
0.004212 1.422722e-02
0.004337 1.401469e-02
0.004462 1.380081e-02
0.004587 1.358562e-02
0.004712 1.336915e-02
0.004837 1.315143e-02
0.004962 1.293251e-02
0.005087 1.271243e-02
0.005212 1.249121e-02
0.005337 1.226890e-02
0.005462 1.204554e-02
0.005587 1.182116e-02
0.005712 1.159580e-02
0.005837 1.136950e-02
0.005962 1.114230e-02
0.006087 1.091423e-02
0.006212 1.068533e-02
0.006337 1.045564e-02
0.006462 1.022520e-02
0.006587 9.994048e-03
0.006712 9.762220e-03
0.006837 9.529754e-03
0.006962 9.296690e-03
0.007087 9.063065e-03
0.007212 8.828918e-03
0.007337 8.594286e-03
0.007462 8.359208e-03
0.007587 8.123722e-03
0.007712 7.887867e-03
0.007837 7.651680e-03
0.007962 7.415200e-03
0.008087 7.178465e-03
0.008212 6.941512e-03
0.008337 6.704381e-03
0.008462 6.467109e-03
0.008587 6.229734e-03
0.008712 5.992294e-03
0.008837 5.754826e-03
0.008962 5.517370e-03
0.009087 5.279962e-03
0.009212 5.042640e-03
0.009337 4.805443e-03
0.009462 4.568406e-03
0.009587 4.331568e-03
0.009712 4.094967e-03
0.009837 3.858638e-03
0.009962 3.622621e-03
0.010087 3.386950e-03
0.010212 3.151665e-03
0.010337 2.916800e-03
0.010462 2.682394e-03
0.010587 2.448482e-03
0.010712 2.215102e-03
0.010837 1.982288e-03
0.010962 1.750079e-03
0.011087 1.518508e-03
0.011212 1.287614e-03
0.011337 1.057430e-03
0.011462 8.279929e-04
0.011587 5.993380e-04
0.011712 3.715004e-04
0.011837 1.445152e-04
0.011962 -8.158284e-05
0.012087 -3.067589e-04
0.012212 -5.309786e-04
0.012337 -7.542074e-04
0.012462 -9.764114e-04
0.012587 -1.197557e-03
0.012712 -1.417609e-03
0.012837 -1.636536e-03
0.012962 -1.854303e-03
0.013087 -2.070878e-03
0.013212 -2.286228e-03
0.013337 -2.500319e-03
0.013462 -2.713121e-03
0.013587 -2.924600e-03
0.013712 -3.134724e-03
0.013837 -3.343463e-03
0.013962 -3.550784e-03
0.014087 -3.756656e-03
0.014212 -3.961048e-03
0.014337 -4.163930e-03
0.014462 -4.365272e-03
0.014587 -4.565042e-03
0.014712 -4.763211e-03
0.014837 -4.959750e-03
0.014962 -5.154630e-03
0.015087 -5.347820e-03
0.015212 -5.539293e-03
0.015337 -5.729020e-03
0.015462 -5.916972e-03
0.015587 -6.103122e-03
0.015712 -6.287443e-03
0.015837 -6.469906e-03
0.015962 -6.650485e-03
0.016087 -6.829153e-03
0.016212 -7.005885e-03
0.016337 -7.180653e-03
0.016462 -7.353432e-03
0.016587 -7.524197e-03
0.016712 -7.692922e-03
0.016837 -7.859583e-03
0.016962 -8.024155e-03
0.017087 -8.186615e-03
0.017212 -8.346937e-03
0.017337 -8.505100e-03
0.017462 -8.661080e-03
0.017587 -8.814854e-03
0.017712 -8.966400e-03
0.017837 -9.115696e-03
0.017962 -9.262719e-03
0.018087 -9.407449e-03
0.018212 -9.549865e-03
0.018337 -9.689946e-03
0.018462 -9.827672e-03
0.018587 -9.963023e-03
0.018712 -1.009598e-02
0.018837 -1.022652e-02
0.018962 -1.035463e-02
0.019087 -1.048029e-02
0.019212 -1.060348e-02
0.019337 -1.072418e-02
0.019462 -1.084238e-02
0.019587 -1.095806e-02
0.019712 -1.107121e-02
0.019837 -1.118179e-02
0.019962 -1.128981e-02
0.020087 -1.139525e-02
0.020212 -1.149808e-02
0.020337 -1.159830e-02
0.020462 -1.169590e-02
0.020587 -1.179085e-02
0.020712 -1.188314e-02
0.020837 -1.197277e-02
0.020962 -1.205972e-02
0.021087 -1.214397e-02
0.021212 -1.222552e-02
0.021337 -1.230436e-02
0.021462 -1.238046e-02
0.021587 -1.245383e-02
0.021712 -1.252445e-02
0.021837 -1.259232e-02
0.021962 -1.265741e-02
0.022087 -1.271973e-02
0.022212 -1.277927e-02
0.022337 -1.283602e-02
0.022462 -1.288996e-02
0.022587 -1.294110e-02
0.022712 -1.298942e-02
0.022837 -1.303493e-02
0.022962 -1.307760e-02
0.023087 -1.311745e-02
0.023212 -1.315446e-02
0.023337 -1.318862e-02
0.023462 -1.321994e-02
0.023587 -1.324841e-02
0.023712 -1.327403e-02
0.023837 -1.329679e-02
0.023962 -1.331669e-02
0.024087 -1.333372e-02
0.024212 -1.334790e-02
0.024337 -1.335921e-02
0.024462 -1.336765e-02
0.024587 -1.337323e-02
0.024712 -1.337594e-02
0.024837 -1.337578e-02
0.024962 -1.337276e-02
0.025087 -1.336687e-02
0.025212 -1.335812e-02
0.025337 -1.334651e-02
0.025462 -1.333204e-02
0.025587 -1.331472e-02
0.025712 -1.329454e-02
0.025837 -1.327151e-02
0.025962 -1.324563e-02
0.026087 -1.321692e-02
0.026212 -1.318537e-02
0.026337 -1.315098e-02
0.026462 -1.311378e-02
0.026587 -1.307375e-02
0.026712 -1.303091e-02
0.026837 -1.298526e-02
0.026962 -1.293682e-02
0.027087 -1.288558e-02
0.027212 -1.283156e-02
0.027337 -1.277477e-02
0.027462 -1.271521e-02
0.027587 -1.265289e-02
0.027712 -1.258783e-02
0.027837 -1.252003e-02
0.027962 -1.244950e-02
0.028087 -1.237626e-02
0.028212 -1.230031e-02
0.028337 -1.222167e-02
0.028462 -1.214035e-02
0.028587 -1.205636e-02
0.028712 -1.196971e-02
0.028837 -1.188042e-02
0.028962 -1.178851e-02
0.029087 -1.169398e-02
0.029212 -1.159684e-02
0.029337 -1.149712e-02
0.029462 -1.139483e-02
0.029587 -1.128998e-02
0.029712 -1.118260e-02
0.029837 -1.107268e-02
0.029962 -1.096027e-02
0.030087 -1.084535e-02
0.030212 -1.072797e-02
0.030337 -1.060813e-02
0.030462 -1.048585e-02
0.030587 -1.036115e-02
0.030712 -1.023405e-02
0.030837 -1.010457e-02
0.030962 -9.972722e-03
0.031087 -9.838531e-03
0.031212 -9.702016e-03
0.031337 -9.563198e-03
0.031462 -9.422096e-03
0.031587 -9.278732e-03
0.031712 -9.133128e-03
0.031837 -8.985303e-03
0.031962 -8.835281e-03
0.032087 -8.683084e-03
0.032212 -8.528733e-03
0.032337 -8.372252e-03
0.032462 -8.213664e-03
0.032587 -8.052993e-03
0.032712 -7.890261e-03
0.032837 -7.725494e-03
0.032962 -7.558714e-03
0.033087 -7.389948e-03
0.033212 -7.219219e-03
0.033337 -7.046553e-03
0.033462 -6.871975e-03
0.033587 -6.695510e-03
0.033712 -6.517186e-03
0.033837 -6.337028e-03
0.033962 -6.155062e-03
0.034087 -5.971315e-03
0.034212 -5.785815e-03
0.034337 -5.598588e-03
0.034462 -5.409662e-03
0.034587 -5.219065e-03
0.034712 -5.026825e-03
0.034837 -4.832969e-03
0.034962 -4.637527e-03
0.035087 -4.440527e-03
0.035212 -4.241997e-03
0.035337 -4.041968e-03
0.035462 -3.840468e-03
0.035587 -3.637528e-03
0.035712 -3.433176e-03
0.035837 -3.227442e-03
0.035962 -3.020358e-03
0.036087 -2.811953e-03
0.036212 -2.602257e-03
0.036337 -2.391302e-03
0.036462 -2.179119e-03
0.036587 -1.965738e-03
0.036712 -1.751191e-03
0.036837 -1.535510e-03
0.036962 -1.318725e-03
0.037087 -1.100870e-03
0.037212 -8.819747e-04
0.037337 -6.620727e-04
0.037462 -4.411958e-04
0.037587 -2.193765e-04
0.037712 3.352672e-06
0.037837 2.269591e-04
0.037962 4.514098e-04
0.038087 6.766720e-04
0.038212 9.027125e-04
0.038337 1.129498e-03
0.038462 1.356996e-03
0.038587 1.585172e-03
0.038712 1.813992e-03
0.038837 2.043424e-03
0.038962 2.273434e-03
0.039087 2.503987e-03
0.039212 2.735049e-03
0.039337 2.966588e-03
0.039462 3.198568e-03
0.039587 3.430956e-03
0.039712 3.663716e-03
0.039837 3.896816e-03
0.039962 4.130221e-03
0.040087 4.363895e-03
0.040212 4.597805e-03
0.040337 4.831917e-03
0.040462 5.066194e-03
0.040587 5.300604e-03
0.040712 5.535112e-03
0.040837 5.769682e-03
0.040962 6.004279e-03
0.041087 6.238871e-03
0.041212 6.473420e-03
0.041337 6.707894e-03
0.041462 6.942256e-03
0.041587 7.176473e-03
0.041712 7.410509e-03
0.041837 7.644330e-03
0.041962 7.877900e-03
0.042087 8.111187e-03
0.042212 8.344153e-03
0.042337 8.576766e-03
0.042462 8.808990e-03
0.042587 9.040790e-03
0.042712 9.272132e-03
0.042837 9.502982e-03
0.042962 9.733305e-03
0.043087 9.963066e-03
0.043212 1.019223e-02
0.043337 1.042077e-02
0.043462 1.064864e-02
0.043587 1.087581e-02
0.043712 1.110225e-02
0.043837 1.132792e-02
0.043962 1.155279e-02
0.044087 1.177683e-02
0.044212 1.200000e-02
0.044337 1.222227e-02
0.044462 1.244360e-02
0.044587 1.266396e-02
0.044712 1.288332e-02
0.044837 1.310164e-02
0.044962 1.331889e-02
0.045087 1.353505e-02
0.045212 1.375006e-02
0.045337 1.396391e-02
0.045462 1.417656e-02
0.045587 1.438798e-02
0.045712 1.459813e-02
0.045837 1.480698e-02
0.045962 1.501451e-02
0.046087 1.522067e-02
0.046212 1.542544e-02
0.046337 1.562879e-02
0.046462 1.583068e-02
0.046587 1.603108e-02
0.046712 1.622996e-02
0.046837 1.642730e-02
0.046962 1.662305e-02
0.047087 1.681720e-02
0.047212 1.700970e-02
0.047337 1.720053e-02
0.047462 1.738966e-02
0.047587 1.757707e-02
0.047712 1.776271e-02
0.047837 1.794656e-02
0.047962 1.812859e-02
0.048087 1.830878e-02
0.048212 1.848709e-02
0.048337 1.866350e-02
0.048462 1.883797e-02
0.048587 1.901048e-02
0.048712 1.918101e-02
0.048837 1.934952e-02
0.048962 1.951598e-02
0.049087 1.968038e-02
0.049212 1.984268e-02
0.049337 2.000285e-02
0.049462 2.016088e-02
0.049587 2.031673e-02
0.049712 2.047038e-02
0.049837 2.062181e-02
0.049962 2.077098e-02
0.050087 2.091788e-02
0.050212 2.106247e-02
0.050337 2.120474e-02
0.050462 2.134466e-02
0.050587 2.148221e-02
0.050712 2.161736e-02
0.050837 2.175009e-02
0.050962 2.188037e-02
0.051087 2.200820e-02
0.051212 2.213353e-02
0.051337 2.225636e-02
0.051462 2.237665e-02
0.051587 2.249439e-02
0.051712 2.260956e-02
0.051837 2.272213e-02
0.051962 2.283209e-02
0.052087 2.293941e-02
0.052212 2.304408e-02
0.052337 2.314607e-02
0.052462 2.324537e-02
0.052587 2.334196e-02
0.052712 2.343582e-02
0.052837 2.352693e-02
0.052962 2.361528e-02
0.053087 2.370084e-02
0.053212 2.378360e-02
0.053337 2.386354e-02
0.053462 2.394064e-02
0.053587 2.401490e-02
0.053712 2.408630e-02
0.053837 2.415481e-02
0.053962 2.422042e-02
0.054087 2.428313e-02
0.054212 2.434291e-02
0.054337 2.439975e-02
0.054462 2.445364e-02
0.054587 2.450456e-02
0.054712 2.455250e-02
0.054837 2.459746e-02
0.054962 2.463941e-02
0.055087 2.467835e-02
0.055212 2.471426e-02
0.055337 2.474713e-02
0.055462 2.477696e-02
0.055587 2.480373e-02
0.055712 2.482744e-02
0.055837 2.484806e-02
0.055962 2.486560e-02
0.056087 2.488005e-02
0.056212 2.489139e-02
0.056337 2.489962e-02
0.056462 2.490474e-02
0.056587 2.490673e-02
0.056712 2.490558e-02
0.056837 2.490130e-02
0.056962 2.489388e-02
0.057087 2.488330e-02
0.057212 2.486957e-02
0.057337 2.485268e-02
0.057462 2.483263e-02
0.057587 2.480941e-02
0.057712 2.478301e-02
0.057837 2.475345e-02
0.057962 2.472070e-02
0.058087 2.468477e-02
0.058212 2.464566e-02
0.058337 2.460337e-02
0.058462 2.455789e-02
0.058587 2.450923e-02
0.058712 2.445738e-02
0.058837 2.440234e-02
0.058962 2.434412e-02
0.059087 2.428272e-02
0.059212 2.421813e-02
0.059337 2.415035e-02
0.059462 2.407940e-02
0.059587 2.400527e-02
0.059712 2.392796e-02