-0.102788 -2.290753e-04
-0.102663 -2.271707e-04
-0.102538 -2.252469e-04
-0.102413 -2.233040e-04
-0.102288 -2.213421e-04
-0.102163 -2.193614e-04
-0.102038 -2.173622e-04
-0.101913 -2.153444e-04
-0.101788 -2.133084e-04
-0.101663 -2.112542e-04
-0.101538 -2.091821e-04
-0.101413 -2.070922e-04
-0.101288 -2.049847e-04
-0.101163 -2.028598e-04
-0.101038 -2.007176e-04
-0.100913 -1.985583e-04
-0.100788 -1.963821e-04
-0.100663 -1.941891e-04
-0.100538 -1.919796e-04
-0.100413 -1.897538e-04
-0.100288 -1.875117e-04
-0.100163 -1.852537e-04
-0.100038 -1.829799e-04
-0.099913 -1.806904e-04
-0.099788 -1.783855e-04
-0.099663 -1.760654e-04
-0.099538 -1.737302e-04
-0.099413 -1.713801e-04
-0.099288 -1.690154e-04
-0.099163 -1.666362e-04
-0.099038 -1.642428e-04
-0.098913 -1.618353e-04
-0.098788 -1.594139e-04
-0.098663 -1.569788e-04
-0.098538 -1.545303e-04
-0.098413 -1.520685e-04
-0.098288 -1.495936e-04
-0.098163 -1.471059e-04
-0.098038 -1.446055e-04
-0.097913 -1.420927e-04
-0.097788 -1.395676e-04
-0.097663 -1.370305e-04
-0.097538 -1.344816e-04
-0.097413 -1.319211e-04
-0.097288 -1.293492e-04
-0.097163 -1.267661e-04
-0.097038 -1.241720e-04
-0.096913 -1.215672e-04
-0.096788 -1.189519e-04
-0.096663 -1.163263e-04
-0.096538 -1.136905e-04
-0.096413 -1.110449e-04
-0.096288 -1.083896e-04
-0.096163 -1.057249e-04
-0.096038 -1.030509e-04
-0.095913 -1.003680e-04
-0.095788 -9.767630e-05
-0.095663 -9.497605e-05
-0.095538 -9.226748e-05
-0.095413 -8.955081e-05
-0.095288 -8.682627e-05
-0.095163 -8.409408e-05
-0.095038 -8.135448e-05
-0.094913 -7.860770e-05
-0.094788 -7.585395e-05
-0.094663 -7.309347e-05
-0.094538 -7.032650e-05
-0.094413 -6.755325e-05
-0.094288 -6.477397e-05
-0.094163 -6.198888e-05
-0.094038 -5.919822e-05
-0.093913 -5.640222e-05
-0.093788 -5.360111e-05
-0.093663 -5.079513e-05
-0.093538 -4.798451e-05
-0.093413 -4.516948e-05
-0.093288 -4.235029e-05
-0.093163 -3.952716e-05
-0.093038 -3.670033e-05
-0.092913 -3.387004e-05
-0.092788 -3.103653e-05
-0.092663 -2.820003e-05
-0.092538 -2.536077e-05
-0.092413 -2.251901e-05
-0.092288 -1.967496e-05
-0.092163 -1.682888e-05
-0.092038 -1.398100e-05
-0.091913 -1.113156e-05
-0.091788 -8.280799e-06
-0.091663 -5.428952e-06
-0.091538 -2.576260e-06
-0.091413 2.770382e-07
-0.091288 3.130703e-06
-0.091163 5.984495e-06
-0.091038 8.838175e-06
-0.090913 1.169150e-05
-0.090788 1.454424e-05
-0.090663 1.739615e-05
-0.090538 2.024699e-05
-0.090413 2.309652e-05
-0.090288 2.594451e-05
-0.090163 2.879070e-05
-0.090038 3.163487e-05
-0.089913 3.447678e-05
-0.089788 3.731618e-05
-0.089663 4.015284e-05
-0.089538 4.298651e-05
-0.089413 4.581697e-05
-0.089288 4.864397e-05
-0.089163 5.146728e-05
-0.089038 5.428665e-05
-0.088913 5.710185e-05
-0.088788 5.991264e-05
-0.088663 6.271879e-05
-0.088538 6.552006e-05
-0.088413 6.831621e-05
-0.088288 7.110701e-05
-0.088163 7.389222e-05
-0.088038 7.667161e-05
-0.087913 7.944494e-05
-0.087788 8.221198e-05
-0.087663 8.497249e-05
-0.087538 8.772625e-05
-0.087413 9.047301e-05
-0.087288 9.321256e-05
-0.087163 9.594465e-05
-0.087038 9.866905e-05
-0.086913 1.013855e-04
-0.086788 1.040939e-04
-0.086663 1.067938e-04
-0.086538 1.094852e-04
-0.086413 1.121677e-04
-0.086288 1.148412e-04
-0.086163 1.175054e-04
-0.086038 1.201601e-04
-0.085913 1.228051e-04
-0.085788 1.254400e-04
-0.085663 1.280649e-04
-0.085538 1.306793e-04
-0.085413 1.332830e-04
-0.085288 1.358760e-04
-0.085163 1.384578e-04
-0.085038 1.410284e-04
-0.084913 1.435875e-04
-0.084788 1.461348e-04
-0.084663 1.486702e-04
-0.084538 1.511935e-04
-0.084413 1.537043e-04
-0.084288 1.562026e-04
-0.084163 1.586881e-04
-0.084038 1.611606e-04
-0.083913 1.636199e-04
-0.083788 1.660658e-04
-0.083663 1.684980e-04
-0.083538 1.709164e-04
-0.083413 1.733207e-04
-0.083288 1.757108e-04
-0.083163 1.780864e-04
-0.083038 1.804473e-04
-0.082913 1.827934e-04
-0.082788 1.851245e-04
-0.082663 1.874402e-04
-0.082538 1.897405e-04
-0.082413 1.920252e-04
-0.082288 1.942940e-04
-0.082163 1.965468e-04
-0.082038 1.987833e-04
-0.081913 2.010034e-04
-0.081788 2.032069e-04
-0.081663 2.053935e-04
-0.081538 2.075632e-04
-0.081413 2.097157e-04
-0.081288 2.118508e-04
-0.081163 2.139684e-04
-0.081038 2.160683e-04
-0.080913 2.181502e-04
-0.080788 2.202141e-04
-0.080663 2.222596e-04
-0.080538 2.242868e-04
-0.080413 2.262953e-04
-0.080288 2.282851e-04
-0.080163 2.302559e-04
-0.080038 2.322075e-04
-0.079913 2.341399e-04
-0.079788 2.360528e-04
-0.079663 2.379461e-04
-0.079538 2.398196e-04
-0.079413 2.416731e-04
-0.079288 2.435065e-04
-0.079163 2.453197e-04
-0.079038 2.471124e-04
-0.078913 2.488846e-04
-0.078788 2.506360e-04
-0.078663 2.523665e-04
-0.078538 2.540760e-04
-0.078413 2.557644e-04
-0.078288 2.574314e-04
-0.078163 2.590769e-04
-0.078038 2.607008e-04
-0.077913 2.623030e-04
-0.077788 2.638833e-04
-0.077663 2.654415e-04
-0.077538 2.669776e-04
-0.077413 2.684914e-04
-0.077288 2.699828e-04
-0.077163 2.714516e-04
-0.077038 2.728977e-04
-0.076913 2.743211e-04
-0.076788 2.757215e-04
-0.076663 2.770988e-04
-0.076538 2.784530e-04
-0.076413 2.797838e-04
-0.076288 2.810913e-04
-0.076163 2.823752e-04
-0.076038 2.836356e-04
-0.075913 2.848721e-04
-0.075788 2.860849e-04
-0.075663 2.872737e-04
-0.075538 2.884384e-04
-0.075413 2.895789e-04
-0.075288 2.906952e-04
-0.075163 2.917872e-04
-0.075038 2.928547e-04
-0.074913 2.938976e-04
-0.074788 2.949159e-04
-0.074663 2.959095e-04
-0.074538 2.968783e-04
-0.074413 2.978222e-04
-0.074288 2.987411e-04
-0.074163 2.996350e-04
-0.074038 3.005037e-04
-0.073913 3.013472e-04
-0.073788 3.021654e-04
-0.073663 3.029582e-04
-0.073538 3.037257e-04
-0.073413 3.044676e-04
-0.073288 3.051839e-04
-0.073163 3.058747e-04
-0.073038 3.065397e-04
-0.072913 3.071790e-04
-0.072788 3.077925e-04
-0.072663 3.083802e-04
-0.072538 3.089419e-04
-0.072413 3.094777e-04
-0.072288 3.099875e-04
-0.072163 3.104712e-04
-0.072038 3.109289e-04
-0.071913 3.113604e-04
-0.071788 3.117657e-04
-0.071663 3.121448e-04
-0.071538 3.124977e-04
-0.071413 3.128243e-04
-0.071288 3.131246e-04
-0.071163 3.133985e-04
-0.071038 3.136461e-04
-0.070913 3.138673e-04
-0.070788 3.140622e-04
-0.070663 3.142305e-04
-0.070538 3.143725e-04
-0.070413 3.144880e-04
-0.070288 3.145770e-04
-0.070163 3.146396e-04
-0.070038 3.146757e-04
-0.069913 3.146853e-04
-0.069788 3.146684e-04
-0.069663 3.146251e-04
-0.069538 3.145552e-04
-0.069413 3.144589e-04
-0.069288 3.143361e-04
-0.069163 3.141868e-04
-0.069038 3.140111e-04
-0.068913 3.138089e-04
-0.068788 3.135804e-04
-0.068663 3.133254e-04
-0.068538 3.130440e-04
-0.068413 3.127362e-04
-0.068288 3.124022e-04
-0.068163 3.120418e-04
-0.068038 3.116551e-04
-0.067913 3.112421e-04
-0.067788 3.108030e-04
-0.067663 3.103377e-04
-0.067538 3.098462e-04
-0.067413 3.093286e-04
-0.067288 3.087850e-04
-0.067163 3.082153e-04
-0.067038 3.076197e-04
-0.066913 3.069981e-04
-0.066788 3.063507e-04
-0.066663 3.056775e-04
-0.066538 3.049785e-04
-0.066413 3.042538e-04
-0.066288 3.035034e-04
-0.066163 3.027275e-04
-0.066038 3.019261e-04
-0.065913 3.010992e-04
-0.065788 3.002469e-04
-0.065663 2.993693e-04
-0.065538 2.984665e-04
-0.065413 2.975386e-04
-0.065288 2.965855e-04
-0.065163 2.956074e-04
-0.065038 2.946045e-04
-0.064913 2.935767e-04
-0.064788 2.925241e-04
-0.064663 2.914469e-04
-0.064538 2.903450e-04
-0.064413 2.892187e-04
-0.064288 2.880681e-04
-0.064163 2.868931e-04
-0.064038 2.856939e-04
-0.063913 2.844707e-04
-0.063788 2.832234e-04
-0.063663 2.819523e-04
-0.063538 2.806573e-04
-0.063413 2.793387e-04
-0.063288 2.779966e-04
-0.063163 2.766309e-04
-0.063038 2.752420e-04
-0.062913 2.738298e-04
-0.062788 2.723945e-04
-0.062663 2.709362e-04
-0.062538 2.694551e-04
-0.062413 2.679512e-04
-0.062288 2.664247e-04
-0.062163 2.648758e-04
-0.062038 2.633044e-04
-0.061913 2.617109e-04
-0.061788 2.600952e-04
-0.061663 2.584576e-04
-0.061538 2.567981e-04
-0.061413 2.551170e-04
-0.061288 2.534143e-04
-0.061163 2.516903e-04
-0.061038 2.499449e-04
-0.060913 2.481785e-04
-0.060788 2.463911e-04
-0.060663 2.445828e-04
-0.060538 2.427539e-04
-0.060413 2.409045e-04
-0.060288 2.390347e-04
-0.060163 2.371447e-04
-0.060038 2.352346e-04
-0.059913 2.333047e-04
-0.059788 2.313550e-04
-0.059663 2.293857e-04
-0.059538 2.273971e-04
-0.059413 2.253892e-04
-0.059288 2.233622e-04
-0.059163 2.213163e-04
-0.059038 2.192517e-04
-0.058913 2.171685e-04
-0.058788 2.150669e-04
-0.058663 2.129471e-04
-0.058538 2.108092e-04
-0.058413 2.086535e-04
-0.058288 2.064800e-04
-0.058163 2.042891e-04
-0.058038 2.020808e-04
-0.057913 1.998554e-04
-0.057788 1.976130e-04
-0.057663 1.953538e-04
-0.057538 1.930781e-04
-0.057413 1.907859e-04
-0.057288 1.884775e-04
-0.057163 1.861531e-04
-0.057038 1.838128e-04
-0.056913 1.814569e-04
-0.056788 1.790856e-04
-0.056663 1.766989e-04
-0.056538 1.742973e-04
-0.056413 1.718808e-04
-0.056288 1.694496e-04
-0.056163 1.670039e-04
-0.056038 1.645440e-04
-0.055913 1.620700e-04
-0.055788 1.595822e-04
-0.055663 1.570807e-04
-0.055538 1.545658e-04
-0.055413 1.520376e-04
-0.055288 1.494964e-04
-0.055163 1.469424e-04
-0.055038 1.443757e-04
-0.054913 1.417967e-04
-0.054788 1.392054e-04
-0.054663 1.366022e-04
-0.054538 1.339872e-04
-0.054413 1.313606e-04
-0.054288 1.287227e-04
-0.054163 1.260737e-04
-0.054038 1.234138e-04
-0.053913 1.207431e-04
-0.053788 1.180621e-04
-0.053663 1.153707e-04
-0.053538 1.126693e-04
-0.053413 1.099581e-04
-0.053288 1.072373e-04
-0.053163 1.045072e-04
-0.053038 1.017679e-04
-0.052913 9.901963e-05
-0.052788 9.626270e-05
-0.052663 9.349729e-05
-0.052538 9.072363e-05
-0.052413 8.794195e-05
-0.052288 8.515248e-05
-0.052163 8.235543e-05
-0.052038 7.955104e-05
-0.051913 7.673954e-05
-0.051788 7.392116e-05
-0.051663 7.109612e-05
-0.051538 6.826466e-05
-0.051413 6.542700e-05
-0.051288 6.258338e-05
-0.051163 5.973403e-05
-0.051038 5.687918e-05
-0.050913 5.401906e-05
-0.050788 5.115391e-05
-0.050663 4.828396e-05
-0.050538 4.540944e-05
-0.050413 4.253058e-05
-0.050288 3.964763e-05
-0.050163 3.676081e-05
-0.050038 3.387036e-05
-0.049913 3.097652e-05
-0.049788 2.807951e-05
-0.049663 2.517959e-05
-0.049538 2.227698e-05
-0.049413 1.937191e-05
-0.049288 1.646463e-05
-0.049163 1.355537e-05
-0.049038 1.064437e-05
-0.048913 7.731870e-06
-0.048788 4.818099e-06
-0.048663 1.903298e-06
-0.048538 -1.012296e-06
-0.048413 -3.928445e-06
-0.048288 -6.844912e-06
-0.048163 -9.761459e-06
-0.048038 -1.267785e-05
-0.047913 -1.559384e-05
-0.047788 -1.850920e-05
-0.047663 -2.142370e-05
-0.047538 -2.433708e-05
-0.047413 -2.724911e-05
-0.047288 -3.015957e-05
-0.047163 -3.306820e-05
-0.047038 -3.597477e-05
-0.046913 -3.887905e-05
-0.046788 -4.178079e-05
-0.046663 -4.467977e-05
-0.046538 -4.757573e-05
-0.046413 -5.046846e-05
-0.046288 -5.335770e-05
-0.046163 -5.624322e-05
-0.046038 -5.912479e-05
-0.045913 -6.200217e-05
-0.045788 -6.487513e-05
-0.045663 -6.774342e-05
-0.045538 -7.060682e-05
-0.045413 -7.346509e-05
-0.045288 -7.631799e-05
-0.045163 -7.916530e-05
-0.045038 -8.200676e-05
-0.044913 -8.484217e-05
-0.044788 -8.767127e-05
-0.044663 -9.049383e-05
-0.044538 -9.330963e-05
-0.044413 -9.611844e-05
-0.044288 -9.892001e-05
-0.044163 -1.017141e-04
-0.044038 -1.045005e-04
-0.043913 -1.072790e-04
-0.043788 -1.100494e-04
-0.043663 -1.128114e-04
-0.043538 -1.155647e-04
-0.043413 -1.183092e-04
-0.043288 -1.210447e-04
-0.043163 -1.237709e-04
-0.043038 -1.264875e-04
-0.042913 -1.291944e-04
-0.042788 -1.318913e-04
-0.042663 -1.345781e-04
-0.042538 -1.372544e-04
-0.042413 -1.399201e-04
-0.042288 -1.425749e-04
-0.042163 -1.452186e-04
-0.042038 -1.478511e-04
-0.041913 -1.504720e-04
-0.041788 -1.530811e-04
-0.041663 -1.556783e-04
-0.041538 -1.582633e-04
-0.041413 -1.608359e-04
-0.041288 -1.633959e-04
-0.041163 -1.659431e-04
-0.041038 -1.684772e-04
-0.040913 -1.709981e-04
-0.040788 -1.735055e-04
-0.040663 -1.759992e-04
-0.040538 -1.784790e-04
-0.040413 -1.809447e-04
-0.040288 -1.833961e-04
-0.040163 -1.858330e-04
-0.040038 -1.882552e-04
-0.039913 -1.906624e-04
-0.039788 -1.930545e-04
-0.039663 -1.954312e-04
-0.039538 -1.977924e-04
-0.039413 -2.001378e-04
-0.039288 -2.024673e-04
-0.039163 -2.047806e-04
-0.039038 -2.070776e-04
-0.038913 -2.093581e-04
-0.038788 -2.116218e-04
-0.038663 -2.138685e-04
-0.038538 -2.160982e-04
-0.038413 -2.183105e-04
-0.038288 -2.205053e-04
-0.038163 -2.226824e-04
-0.038038 -2.248416e-04
-0.037913 -2.269827e-04
-0.037788 -2.291056e-04
-0.037663 -2.312100e-04
-0.037538 -2.332958e-04
-0.037413 -2.353627e-04
-0.037288 -2.374107e-04
-0.037163 -2.394395e-04
-0.037038 -2.414489e-04
-0.036913 -2.434388e-04
-0.036788 -2.454090e-04
-0.036663 -2.473592e-04
-0.036538 -2.492895e-04
-0.036413 -2.511995e-04
-0.036288 -2.530891e-04
-0.036163 -2.549582e-04
-0.036038 -2.568065e-04
-0.035913 -2.586339e-04
-0.035788 -2.604403e-04
-0.035663 -2.622255e-04
-0.035538 -2.639893e-04
-0.035413 -2.657315e-04
-0.035288 -2.674520e-04
-0.035163 -2.691507e-04
-0.035038 -2.708274e-04
-0.034913 -2.724820e-04
-0.034788 -2.741142e-04
-0.034663 -2.757240e-04
-0.034538 -2.773111e-04
-0.034413 -2.788756e-04
-0.034288 -2.804171e-04
-0.034163 -2.819356e-04
-0.034038 -2.834310e-04
-0.033913 -2.849030e-04
-0.033788 -2.863516e-04
-0.033663 -2.877766e-04
-0.033538 -2.891779e-04
-0.033413 -2.905554e-04
-0.033288 -2.919089e-04
-0.033163 -2.932383e-04
-0.033038 -2.945434e-04
-0.032913 -2.958243e-04
-0.032788 -2.970806e-04
-0.032663 -2.983124e-04
-0.032538 -2.995195e-04
-0.032413 -3.007018e-04
-0.032288 -3.018591e-04
-0.032163 -3.029915e-04
-0.032038 -3.040986e-04
-0.031913 -3.051805e-04
-0.031788 -3.062371e-04
-0.031663 -3.072682e-04
-0.031538 -3.082737e-04
-0.031413 -3.092536e-04
-0.031288 -3.102077e-04
-0.031163 -3.111360e-04
-0.031038 -3.120383e-04
-0.030913 -3.129146e-04
-0.030788 -3.137648e-04
-0.030663 -3.145888e-04
-0.030538 -3.153865e-04
-0.030413 -3.161578e-04
-0.030288 -3.169027e-04
-0.030163 -3.176210e-04
-0.030038 -3.183128e-04
-0.029913 -3.189779e-04
-0.029788 -3.196162e-04
-0.029663 -3.202278e-04
-0.029538 -3.208124e-04
-0.029413 -3.213702e-04
-0.029288 -3.219009e-04
-0.029163 -3.224046e-04
-0.029038 -3.228812e-04
-0.028913 -3.233307e-04
-0.028788 -3.237529e-04
-0.028663 -3.241478e-04
-0.028538 -3.245155e-04
-0.028413 -3.248558e-04
-0.028288 -3.251687e-04
-0.028163 -3.254542e-04
-0.028038 -3.257122e-04
-0.027913 -3.259428e-04
-0.027788 -3.261457e-04
-0.027663 -3.263212e-04
-0.027538 -3.264690e-04
-0.027413 -3.265893e-04
-0.027288 -3.266818e-04
-0.027163 -3.267468e-04
-0.027038 -3.267841e-04
-0.026913 -3.267937e-04
-0.026788 -3.267756e-04
-0.026663 -3.267298e-04
-0.026538 -3.266562e-04
-0.026413 -3.265550e-04
-0.026288 -3.264261e-04
-0.026163 -3.262694e-04
-0.026038 -3.260850e-04
-0.025913 -3.258729e-04
-0.025788 -3.256331e-04
-0.025663 -3.253657e-04
-0.025538 -3.250705e-04
-0.025413 -3.247477e-04
-0.025288 -3.243973e-04
-0.025163 -3.240192e-04
-0.025038 -3.236136e-04
-0.024913 -3.231804e-04
-0.024788 -3.227196e-04
-0.024663 -3.222314e-04
-0.024538 -3.217156e-04
-0.024413 -3.211725e-04
-0.024288 -3.206019e-04
-0.024163 -3.200040e-04
-0.024038 -3.193787e-04
-0.023913 -3.187262e-04
-0.023788 -3.180465e-04
-0.023663 -3.173397e-04
-0.023538 -3.166057e-04
-0.023413 -3.158447e-04
-0.023288 -3.150567e-04
-0.023163 -3.142417e-04
-0.023038 -3.133999e-04
-0.022913 -3.125313e-04
-0.022788 -3.116360e-04
-0.022663 -3.107140e-04
-0.022538 -3.097655e-04
-0.022413 -3.087904e-04
-0.022288 -3.077889e-04
-0.022163 -3.067611e-04
-0.022038 -3.057071e-04
-0.021913 -3.046268e-04
-0.021788 -3.035205e-04
-0.021663 -3.023882e-04
-0.021538 -3.012301e-04
-0.021413 -3.000461e-04
-0.021288 -2.988365e-04
-0.021163 -2.976012e-04
-0.021038 -2.963405e-04
-0.020913 -2.950544e-04
-0.020788 -2.937431e-04
-0.020663 -2.924065e-04
-0.020538 -2.910450e-04
-0.020413 -2.896585e-04
-0.020288 -2.882473e-04
-0.020163 -2.868113e-04
-0.020038 -2.853508e-04
-0.019913 -2.838659e-04
-0.019788 -2.823567e-04
-0.019663 -2.808233e-04
-0.019538 -2.792658e-04
-0.019413 -2.776845e-04
-0.019288 -2.760794e-04
-0.019163 -2.744507e-04
-0.019038 -2.727985e-04
-0.018913 -2.711230e-04
-0.018788 -2.694243e-04
-0.018663 -2.677025e-04
-0.018538 -2.659579e-04
-0.018413 -2.641905e-04
-0.018288 -2.624006e-04
-0.018163 -2.605882e-04
-0.018038 -2.587536e-04
-0.017913 -2.568969e-04
-0.017788 -2.550183e-04
-0.017663 -2.531179e-04
-0.017538 -2.511959e-04
-0.017413 -2.492525e-04
-0.017288 -2.472878e-04
-0.017163 -2.453021e-04
-0.017038 -2.432954e-04
-0.016913 -2.412681e-04
-0.016788 -2.392202e-04
-0.016663 -2.371519e-04
-0.016538 -2.350635e-04
-0.016413 -2.329550e-04
-0.016288 -2.308268e-04
-0.016163 -2.286790e-04
-0.016038 -2.265117e-04
-0.015913 -2.243252e-04
-0.015788 -2.221197e-04
-0.015663 -2.198954e-04
-0.015538 -2.176524e-04
-0.015413 -2.153910e-04
-0.015288 -2.131113e-04
-0.015163 -2.108136e-04
-0.015038 -2.084981e-04
-0.014913 -2.061650e-04
-0.014788 -2.038145e-04
-0.014663 -2.014468e-04
-0.014538 -1.990621e-04
-0.014413 -1.966606e-04
-0.014288 -1.942426e-04
-0.014163 -1.918082e-04
-0.014038 -1.893577e-04
-0.013913 -1.868913e-04
-0.013788 -1.844092e-04
-0.013663 -1.819117e-04
-0.013538 -1.793989e-04
-0.013413 -1.768711e-04
-0.013288 -1.743285e-04
-0.013163 -1.717714e-04
-0.013038 -1.691999e-04
-0.012913 -1.666143e-04
-0.012788 -1.640149e-04
-0.012663 -1.614018e-04
-0.012538 -1.587753e-04
-0.012413 -1.561356e-04
-0.012288 -1.534830e-04
-0.012163 -1.508177e-04
-0.012038 -1.481399e-04
-0.011913 -1.454499e-04
-0.011788 -1.427478e-04
-0.011663 -1.400341e-04
-0.011538 -1.373088e-04
-0.011413 -1.345723e-04
-0.011288 -1.318247e-04
-0.011163 -1.290664e-04
-0.011038 -1.262975e-04
-0.010913 -1.235184e-04
-0.010788 -1.207291e-04
-0.010663 -1.179301e-04
-0.010538 -1.151216e-04
-0.010413 -1.123037e-04
-0.010288 -1.094768e-04
-0.010163 -1.066410e-04
-0.010038 -1.037967e-04
-0.009913 -1.009441e-04
-0.009788 -9.808347e-05
-0.009663 -9.521500e-05
-0.009538 -9.233898e-05
-0.009413 -8.945565e-05
-0.009288 -8.656528e-05
-0.009163 -8.366810e-05
-0.009038 -8.076438e-05
-0.008913 -7.785437e-05
-0.008788 -7.493831e-05
-0.008663 -7.201648e-05
-0.008538 -6.908911e-05
-0.008413 -6.615646e-05
-0.008288 -6.321880e-05
-0.008163 -6.027637e-05
-0.008038 -5.732942e-05
-0.007913 -5.437822e-05
-0.007788 -5.142301e-05
-0.007663 -4.846406e-05
-0.007538 -4.550161e-05
-0.007413 -4.253593e-05
-0.007288 -3.956726e-05
-0.007163 -3.659587e-05
-0.007038 -3.362200e-05
-0.006913 -3.064592e-05
-0.006788 -2.766787e-05
-0.006663 -2.468811e-05
-0.006538 -2.170689e-05
-0.006413 -1.872448e-05
-0.006288 -1.574112e-05
-0.006163 -1.275706e-05
-0.006038 -9.772561e-06
-0.005913 -6.787875e-06
-0.005788 -3.803253e-06
-0.005663 -8.189471e-07
-0.005538 2.164790e-06
-0.005413 5.147708e-06
-0.005288 8.129556e-06
-0.005163 1.111008e-05
-0.005038 1.408904e-05
-0.004913 1.706617e-05
-0.004788 2.004124e-05
-0.004663 2.301399e-05
-0.004538 2.598417e-05
-0.004413 2.895155e-05
-0.004288 3.191586e-05
-0.004163 3.487687e-05
-0.004038 3.783433e-05
-0.003913 4.078799e-05
-0.003788 4.373761e-05
-0.003663 4.668296e-05
-0.003538 4.962378e-05
-0.003413 5.255983e-05
-0.003288 5.549088e-05
-0.003163 5.841668e-05
-0.003038 6.133700e-05
-0.002913 6.425159e-05
-0.002788 6.716022e-05
-0.002663 7.006265e-05
-0.002538 7.295865e-05
-0.002413 7.584799e-05
-0.002288 7.873042e-05
-0.002163 8.160571e-05
-0.002038 8.447364e-05
-0.001913 8.733397e-05
-0.001788 9.018647e-05
-0.001663 9.303092e-05
-0.001538 9.586708e-05
-0.001413 9.869473e-05
-0.001288 1.015136e-04
-0.001163 1.043236e-04
-0.001038 1.071244e-04
-0.000913 1.099157e-04
-0.000788 1.126975e-04
-0.000663 1.154693e-04
-0.000538 1.182312e-04
-0.000413 1.209827e-04
-0.000288 1.237237e-04
-0.000163 1.264540e-04
-0.000038 1.291734e-04
0.000087 1.318817e-04
0.000212 1.345785e-04
0.000337 1.372639e-04
0.000462 1.399374e-04
0.000587 1.425990e-04
0.000712 1.452483e-04
0.000837 1.478853e-04
0.000962 1.505097e-04
0.001087 1.531213e-04
0.001212 1.557199e-04
0.001337 1.583052e-04
0.001462 1.608772e-04
0.001587 1.634356e-04
0.001712 1.659802e-04
0.001837 1.685108e-04
0.001962 1.710272e-04
0.002087 1.735292e-04
0.002212 1.760167e-04
0.002337 1.784894e-04
0.002462 1.809472e-04
0.002587 1.833899e-04
0.002712 1.858172e-04
0.002837 1.882291e-04
0.002962 1.906253e-04
0.003087 1.930056e-04
0.003212 1.953699e-04
0.003337 1.977180e-04
0.003462 2.000497e-04
0.003587 2.023649e-04
0.003712 2.046633e-04
0.003837 2.069448e-04
0.003962 2.092093e-04
0.004087 2.114565e-04
0.004212 2.136863e-04
0.004337 2.158985e-04
0.004462 2.180930e-04
0.004587 2.202696e-04
0.004712 2.224281e-04
0.004837 2.245684e-04
0.004962 2.266904e-04
0.005087 2.287938e-04
0.005212 2.308785e-04
0.005337 2.329444e-04
0.005462 2.349913e-04
0.005587 2.370190e-04
0.005712 2.390275e-04
0.005837 2.410165e-04
0.005962 2.429860e-04
0.006087 2.449357e-04
0.006212 2.468656e-04
0.006337 2.487755e-04
0.006462 2.506652e-04
0.006587 2.525347e-04
0.006712 2.543837e-04
0.006837 2.562122e-04
0.006962 2.580200e-04
0.007087 2.598070e-04
0.007212 2.615731e-04
0.007337 2.633181e-04
0.007462 2.650419e-04
0.007587 2.667444e-04
0.007712 2.684254e-04
0.007837 2.700849e-04
0.007962 2.717227e-04
0.008087 2.733387e-04
0.008212 2.749328e-04
0.008337 2.765048e-04
0.008462 2.780547e-04
0.008587 2.795824e-04
0.008712 2.810877e-04
0.008837 2.825705e-04
0.008962 2.840308e-04
0.009087 2.854683e-04
0.009212 2.868831e-04
0.009337 2.882750e-04
0.009462 2.896439e-04
0.009587 2.909897e-04
0.009712 2.923123e-04
0.009837 2.936116e-04
0.009962 2.948876e-04
0.010087 2.961401e-04
0.010212 2.973690e-04
0.010337 2.985743e-04
0.010462 2.997558e-04
0.010587 3.009136e-04
0.010712 3.020474e-04
0.010837 3.031572e-04
0.010962 3.042430e-04
0.011087 3.053046e-04
0.011212 3.063420e-04
0.011337 3.073551e-04
0.011462 3.083438e-04
0.011587 3.093080e-04
0.011712 3.102478e-04
0.011837 3.111629e-04
0.011962 3.120534e-04
0.012087 3.129192e-04
0.012212 3.137602e-04
0.012337 3.145763e-04
0.012462 3.153675e-04
0.012587 3.161337e-04
0.012712 3.168749e-04
0.012837 3.175910e-04
0.012962 3.182819e-04
0.013087 3.189476e-04
0.013212 3.195881e-04
0.013337 3.202033e-04
0.013462 3.207931e-04
0.013587 3.213576e-04
0.013712 3.218965e-04
0.013837 3.224100e-04
0.013962 3.228980e-04
0.014087 3.233604e-04
0.014212 3.237971e-04
0.014337 3.242082e-04
0.014462 3.245937e-04
0.014587 3.249534e-04
0.014712 3.252873e-04
0.014837 3.255955e-04
0.014962 3.258778e-04
0.015087 3.261343e-04
0.015212 3.263650e-04
0.015337 3.265697e-04
0.015462 3.267485e-04
0.015587 3.269014e-04
0.015712 3.270283e-04
0.015837 3.271292e-04
0.015962 3.272042e-04
0.016087 3.272531e-04
0.016212 3.272760e-04
0.016337 3.272729e-04
0.016462 3.272437e-04
0.016587 3.271885e-04
0.016712 3.271072e-04
0.016837 3.269999e-04
0.016962 3.268665e-04
0.017087 3.267070e-04
0.017212 3.265214e-04
0.017337 3.263098e-04
0.017462 3.260721e-04
0.017587 3.258084e-04
0.017712 3.255186e-04
0.017837 3.252027e-04
0.017962 3.248608e-04
0.018087 3.244929e-04
0.018212 3.240990e-04
0.018337 3.236791e-04
0.018462 3.232332e-04
0.018587 3.227614e-04
0.018712 3.222636e-04
0.018837 3.217399e-04
0.018962 3.211903e-04
0.019087 3.206148e-04
0.019212 3.200135e-04
0.019337 3.193863e-04
0.019462 3.187334e-04
0.019587 3.180548e-04
0.019712 3.173504e-04
0.019837 3.166203e-04
0.019962 3.158646e-04
0.020087 3.150833e-04
0.020212 3.142764e-04
0.020337 3.134440e-04
0.020462 3.125861e-04
0.020587 3.117028e-04
0.020712 3.107941e-04
0.020837 3.098601e-04
0.020962 3.089007e-04
0.021087 3.079162e-04
0.021212 3.069065e-04
0.021337 3.058716e-04
0.021462 3.048117e-04
0.021587 3.037268e-04
0.021712 3.026170e-04
0.021837 3.014823e-04
0.021962 3.003228e-04
0.022087 2.991385e-04
0.022212 2.979296e-04
0.022337 2.966961e-04
0.022462 2.954380e-04
0.022587 2.941555e-04
0.022712 2.928486e-04
0.022837 2.915175e-04
0.022962 2.901621e-04
0.023087 2.887826e-04
0.023212 2.873790e-04
0.023337 2.859514e-04
0.023462 2.845000e-04
0.023587 2.830248e-04
0.023712 2.815259e-04
0.023837 2.800034e-04
0.023962 2.784574e-04
0.024087 2.768880e-04
0.024212 2.752953e-04
0.024337 2.736794e-04
0.024462 2.720404e-04
0.024587 2.703783e-04
0.024712 2.686934e-04
0.024837 2.669857e-04
0.024962 2.652553e-04
0.025087 2.635023e-04
0.025212 2.617269e-04
0.025337 2.599291e-04
0.025462 2.581092e-04
0.025587 2.562671e-04
0.025712 2.544031e-04
0.025837 2.525172e-04
0.025962 2.506095e-04
0.026087 2.486803e-04
0.026212 2.467296e-04
0.026337 2.447576e-04
0.026462 2.427644e-04
0.026587 2.407501e-04
0.026712 2.387148e-04
0.026837 2.366588e-04
0.026962 2.345821e-04
0.027087 2.324849e-04
0.027212 2.303673e-04
0.027337 2.282295e-04
0.027462 2.260716e-04
0.027587 2.238938e-04
0.027712 2.216963e-04
0.027837 2.194791e-04
0.027962 2.172425e-04
0.028087 2.149865e-04
0.028212 2.127114e-04
0.028337 2.104173e-04
0.028462 2.081045e-04
0.028587 2.057729e-04
0.028712 2.034229e-04
0.028837 2.010545e-04
0.028962 1.986680e-04
0.029087 1.962636e-04
0.029212 1.938413e-04
0.029337 1.914014e-04
0.029462 1.889441e-04
0.029587 1.864694e-04
0.029712 1.839778e-04
0.029837 1.814692e-04
0.029962 1.789439e-04
0.030087 1.764021e-04
0.030212 1.738439e-04
0.030337 1.712696e-04
0.030462 1.686793e-04
0.030587 1.660733e-04
0.030712 1.634518e-04
0.030837 1.608148e-04
0.030962 1.581627e-04
0.031087 1.554957e-04
0.031212 1.528139e-04
0.031337 1.501175e-04
0.031462 1.474068e-04
0.031587 1.446820e-04
0.031712 1.419432e-04
0.031837 1.391907e-04
0.031962 1.364247e-04
0.032087 1.336455e-04
0.032212 1.308531e-04
0.032337 1.280479e-04
0.032462 1.252301e-04
0.032587 1.223999e-04
0.032712 1.195575e-04
0.032837 1.167032e-04
0.032962 1.138371e-04
0.033087 1.109595e-04
0.033212 1.080707e-04
0.033337 1.051708e-04
0.033462 1.022601e-04
0.033587 9.933883e-05
0.033712 9.640723e-05
0.033837 9.346553e-05
0.033962 9.051398e-05
0.034087 8.755280e-05
0.034212 8.458225e-05
0.034337 8.160257e-05
0.034462 7.861400e-05
0.034587 7.561679e-05
0.034712 7.261118e-05
0.034837 6.959743e-05
0.034962 6.657579e-05
0.035087 6.354649e-05
0.035212 6.050981e-05
0.035337 5.746599e-05
0.035462 5.441529e-05
0.035587 5.135796e-05
0.035712 4.829427e-05
0.035837 4.522447e-05
0.035962 4.214881e-05
0.036087 3.906757e-05
0.036212 3.598100e-05
0.036337 3.288937e-05
0.036462 2.979294e-05
0.036587 2.669198e-05
0.036712 2.358675e-05
0.036837 2.047752e-05
0.036962 1.736456e-05
0.037087 1.424814e-05
0.037212 1.112853e-05
0.037337 8.005995e-06
0.037462 4.880813e-06
0.037587 1.753256e-06
0.037712 -1.376404e-06
0.037837 -4.507892e-06
0.037962 -7.640932e-06
0.038087 -1.077525e-05
0.038212 -1.391057e-05
0.038337 -1.704661e-05
0.038462 -2.018309e-05
0.038587 -2.331974e-05
0.038712 -2.645628e-05
0.038837 -2.959243e-05
0.038962 -3.272791e-05
0.039087 -3.586243e-05
0.039212 -3.899571e-05
0.039337 -4.212748e-05
0.039462 -4.525746e-05
0.039587 -4.838535e-05
0.039712 -5.151088e-05
0.039837 -5.463376e-05
0.039962 -5.775372e-05
0.040087 -6.087046e-05
0.040212 -6.398370e-05
0.040337 -6.709316e-05
0.040462 -7.019855e-05
0.040587 -7.329960e-05
0.040712 -7.639601e-05
0.040837 -7.948750e-05
0.040962 -8.257378e-05
0.041087 -8.565458e-05
0.041212 -8.872961e-05
0.041337 -9.179857e-05
0.041462 -9.486120e-05
0.041587 -9.791719e-05
0.041712 -1.009663e-04
0.041837 -1.040082e-04
0.041962 -1.070426e-04
0.042087 -1.100692e-04
0.042212 -1.130878e-04
0.042337 -1.160981e-04
0.042462 -1.190998e-04
0.042587 -1.220926e-04
0.042712 -1.250762e-04
0.042837 -1.280503e-04
0.042962 -1.310147e-04
0.043087 -1.339691e-04
0.043212 -1.369132e-04
0.043337 -1.398467e-04
0.043462 -1.427694e-04
0.043587 -1.456809e-04
0.043712 -1.485810e-04
0.043837 -1.514695e-04
0.043962 -1.543459e-04
0.044087 -1.572102e-04
0.044212 -1.600619e-04
0.044337 -1.629008e-04
0.044462 -1.657267e-04
0.044587 -1.685393e-04
0.044712 -1.713383e-04
0.044837 -1.741234e-04
0.044962 -1.768943e-04
0.045087 -1.796509e-04
0.045212 -1.823928e-04
0.045337 -1.851198e-04
0.045462 -1.878316e-04
0.045587 -1.905279e-04
0.045712 -1.932085e-04
0.045837 -1.958731e-04
0.045962 -1.985215e-04
0.046087 -2.011534e-04
0.046212 -2.037685e-04
0.046337 -2.063667e-04
0.046462 -2.089475e-04
0.046587 -2.115109e-04
0.046712 -2.140565e-04
0.046837 -2.165841e-04
0.046962 -2.190935e-04
0.047087 -2.215843e-04
0.047212 -2.240565e-04
0.047337 -2.265096e-04
0.047462 -2.289435e-04
0.047587 -2.313579e-04
0.047712 -2.337527e-04
0.047837 -2.361275e-04
0.047962 -2.384822e-04
0.048087 -2.408164e-04
0.048212 -2.431300e-04
0.048337 -2.454228e-04
0.048462 -2.476945e-04
0.048587 -2.499449e-04
0.048712 -2.521738e-04
0.048837 -2.543809e-04
0.048962 -2.565661e-04
0.049087 -2.587291e-04
0.049212 -2.608697e-04
0.049337 -2.629877e-04
0.049462 -2.650829e-04
0.049587 -2.671551e-04
0.049712 -2.692041e-04
0.049837 -2.712297e-04
0.049962 -2.732316e-04
0.050087 -2.752098e-04
0.050212 -2.771639e-04
0.050337 -2.790938e-04
0.050462 -2.809994e-04
0.050587 -2.828804e-04
0.050712 -2.847366e-04
0.050837 -2.865679e-04
0.050962 -2.883740e-04
0.051087 -2.901549e-04
0.051212 -2.919103e-04
0.051337 -2.936400e-04
0.051462 -2.953439e-04
0.051587 -2.970219e-04
0.051712 -2.986737e-04
0.051837 -3.002991e-04
0.051962 -3.018982e-04
0.052087 -3.034706e-04
0.052212 -3.050162e-04
0.052337 -3.065349e-04
0.052462 -3.080266e-04
0.052587 -3.094910e-04
0.052712 -3.109280e-04
0.052837 -3.123376e-04
0.052962 -3.137195e-04
0.053087 -3.150737e-04
0.053212 -3.164000e-04
0.053337 -3.176982e-04
0.053462 -3.189683e-04
0.053587 -3.202101e-04
0.053712 -3.214236e-04
0.053837 -3.226085e-04
0.053962 -3.237648e-04
0.054087 -3.248924e-04
0.054212 -3.259911e-04
0.054337 -3.270609e-04
0.054462 -3.281017e-04
0.054587 -3.291133e-04
0.054712 -3.300957e-04
0.054837 -3.310488e-04
0.054962 -3.319725e-04
0.055087 -3.328667e-04
0.055212 -3.337313e-04
0.055337 -3.345663e-04
0.055462 -3.353715e-04
0.055587 -3.361469e-04
0.055712 -3.368924e-04
0.055837 -3.376080e-04
0.055962 -3.382937e-04
0.056087 -3.389492e-04
0.056212 -3.395746e-04
0.056337 -3.401699e-04
0.056462 -3.407349e-04
0.056587 -3.412697e-04
0.056712 -3.417741e-04
0.056837 -3.422482e-04
0.056962 -3.426919e-04
0.057087 -3.431052e-04
0.057212 -3.434880e-04
0.057337 -3.438404e-04
0.057462 -3.441622e-04
0.057587 -3.444535e-04
0.057712 -3.447143e-04
0.057837 -3.449445e-04
0.057962 -3.451441e-04
0.058087 -3.453131e-04
0.058212 -3.454516e-04
0.058337 -3.455595e-04
0.058462 -3.456367e-04
0.058587 -3.456834e-04
0.058712 -3.456995e-04
0.058837 -3.456851e-04
0.058962 -3.456401e-04
0.059087 -3.455645e-04
0.059212 -3.454585e-04
0.059337 -3.453219e-04