-0.102788 4.199617e-05
-0.102663 4.484949e-05
-0.102538 4.769828e-05
-0.102413 5.054230e-05
-0.102288 5.338131e-05
-0.102163 5.621508e-05
-0.102038 5.904335e-05
-0.101913 6.186590e-05
-0.101788 6.468249e-05
-0.101663 6.749287e-05
-0.101538 7.029682e-05
-0.101413 7.309408e-05
-0.101288 7.588444e-05
-0.101163 7.866765e-05
-0.101038 8.144348e-05
-0.100913 8.421170e-05
-0.100788 8.697206e-05
-0.100663 8.972435e-05
-0.100538 9.246832e-05
-0.100413 9.520376e-05
-0.100288 9.793041e-05
-0.100163 1.006481e-04
-0.100038 1.033565e-04
-0.099913 1.060555e-04
-0.099788 1.087447e-04
-0.099663 1.114241e-04
-0.099538 1.140933e-04
-0.099413 1.167522e-04
-0.099288 1.194005e-04
-0.099163 1.220380e-04
-0.099038 1.246644e-04
-0.098913 1.272796e-04
-0.098788 1.298834e-04
-0.098663 1.324754e-04
-0.098538 1.350555e-04
-0.098413 1.376236e-04
-0.098288 1.401793e-04
-0.098163 1.427224e-04
-0.098038 1.452528e-04
-0.097913 1.477702e-04
-0.097788 1.502744e-04
-0.097663 1.527652e-04
-0.097538 1.552424e-04
-0.097413 1.577058e-04
-0.097288 1.601552e-04
-0.097163 1.625903e-04
-0.097038 1.650110e-04
-0.096913 1.674171e-04
-0.096788 1.698084e-04
-0.096663 1.721847e-04
-0.096538 1.745457e-04
-0.096413 1.768912e-04
-0.096288 1.792212e-04
-0.096163 1.815354e-04
-0.096038 1.838335e-04
-0.095913 1.861154e-04
-0.095788 1.883810e-04
-0.095663 1.906300e-04
-0.095538 1.928622e-04
-0.095413 1.950774e-04
-0.095288 1.972755e-04
-0.095163 1.994563e-04
-0.095038 2.016196e-04
-0.094913 2.037652e-04
-0.094788 2.058929e-04
-0.094663 2.080026e-04
-0.094538 2.100941e-04
-0.094413 2.121672e-04
-0.094288 2.142218e-04
-0.094163 2.162576e-04
-0.094038 2.182745e-04
-0.093913 2.202724e-04
-0.093788 2.222510e-04
-0.093663 2.242102e-04
-0.093538 2.261499e-04
-0.093413 2.280698e-04
-0.093288 2.299699e-04
-0.093163 2.318499e-04
-0.093038 2.337098e-04
-0.092913 2.355493e-04
-0.092788 2.373683e-04
-0.092663 2.391666e-04
-0.092538 2.409442e-04
-0.092413 2.427008e-04
-0.092288 2.444363e-04
-0.092163 2.461506e-04
-0.092038 2.478436e-04
-0.091913 2.495150e-04
-0.091788 2.511648e-04
-0.091663 2.527927e-04
-0.091538 2.543988e-04
-0.091413 2.559828e-04
-0.091288 2.575447e-04
-0.091163 2.590842e-04
-0.091038 2.606013e-04
-0.090913 2.620958e-04
-0.090788 2.635677e-04
-0.090663 2.650167e-04
-0.090538 2.664429e-04
-0.090413 2.678460e-04
-0.090288 2.692259e-04
-0.090163 2.705826e-04
-0.090038 2.719159e-04
-0.089913 2.732257e-04
-0.089788 2.745120e-04
-0.089663 2.757745e-04
-0.089538 2.770133e-04
-0.089413 2.782281e-04
-0.089288 2.794190e-04
-0.089163 2.805857e-04
-0.089038 2.817283e-04
-0.088913 2.828466e-04
-0.088788 2.839405e-04
-0.088663 2.850100e-04
-0.088538 2.860549e-04
-0.088413 2.870752e-04
-0.088288 2.880708e-04
-0.088163 2.890416e-04
-0.088038 2.899875e-04
-0.087913 2.909085e-04
-0.087788 2.918045e-04
-0.087663 2.926754e-04
-0.087538 2.935211e-04
-0.087413 2.943416e-04
-0.087288 2.951368e-04
-0.087163 2.959067e-04
-0.087038 2.966512e-04
-0.086913 2.973702e-04
-0.086788 2.980636e-04
-0.086663 2.987315e-04
-0.086538 2.993738e-04
-0.086413 2.999903e-04
-0.086288 3.005812e-04
-0.086163 3.011463e-04
-0.086038 3.016855e-04
-0.085913 3.021989e-04
-0.085788 3.026864e-04
-0.085663 3.031480e-04
-0.085538 3.035836e-04
-0.085413 3.039932e-04
-0.085288 3.043768e-04
-0.085163 3.047343e-04
-0.085038 3.050657e-04
-0.084913 3.053710e-04
-0.084788 3.056502e-04
-0.084663 3.059033e-04
-0.084538 3.061302e-04
-0.084413 3.063309e-04
-0.084288 3.065054e-04
-0.084163 3.066538e-04
-0.084038 3.067759e-04
-0.083913 3.068718e-04
-0.083788 3.069415e-04
-0.083663 3.069850e-04
-0.083538 3.070022e-04
-0.083413 3.069933e-04
-0.083288 3.069581e-04
-0.083163 3.068968e-04
-0.083038 3.068092e-04
-0.082913 3.066955e-04
-0.082788 3.065556e-04
-0.082663 3.063896e-04
-0.082538 3.061974e-04
-0.082413 3.059792e-04
-0.082288 3.057348e-04
-0.082163 3.054644e-04
-0.082038 3.051680e-04
-0.081913 3.048456e-04
-0.081788 3.044972e-04
-0.081663 3.041229e-04
-0.081538 3.037227e-04
-0.081413 3.032966e-04
-0.081288 3.028447e-04
-0.081163 3.023670e-04
-0.081038 3.018636e-04
-0.080913 3.013345e-04
-0.080788 3.007798e-04
-0.080663 3.001996e-04
-0.080538 2.995937e-04
-0.080413 2.989624e-04
-0.080288 2.983058e-04
-0.080163 2.976237e-04
-0.080038 2.969164e-04
-0.079913 2.961838e-04
-0.079788 2.954261e-04
-0.079663 2.946433e-04
-0.079538 2.938354e-04
-0.079413 2.930027e-04
-0.079288 2.921450e-04
-0.079163 2.912626e-04
-0.079038 2.903554e-04
-0.078913 2.894236e-04
-0.078788 2.884673e-04
-0.078663 2.874865e-04
-0.078538 2.864813e-04
-0.078413 2.854519e-04
-0.078288 2.843982e-04
-0.078163 2.833204e-04
-0.078038 2.822187e-04
-0.077913 2.810930e-04
-0.077788 2.799435e-04
-0.077663 2.787703e-04
-0.077538 2.775735e-04
-0.077413 2.763532e-04
-0.077288 2.751096e-04
-0.077163 2.738426e-04
-0.077038 2.725525e-04
-0.076913 2.712393e-04
-0.076788 2.699032e-04
-0.076663 2.685442e-04
-0.076538 2.671626e-04
-0.076413 2.657583e-04
-0.076288 2.643316e-04
-0.076163 2.628826e-04
-0.076038 2.614114e-04
-0.075913 2.599181e-04
-0.075788 2.584028e-04
-0.075663 2.568657e-04
-0.075538 2.553070e-04
-0.075413 2.537266e-04
-0.075288 2.521249e-04
-0.075163 2.505019e-04
-0.075038 2.488578e-04
-0.074913 2.471927e-04
-0.074788 2.455068e-04
-0.074663 2.438002e-04
-0.074538 2.420730e-04
-0.074413 2.403254e-04
-0.074288 2.385576e-04
-0.074163 2.367697e-04
-0.074038 2.349619e-04
-0.073913 2.331342e-04
-0.073788 2.312870e-04
-0.073663 2.294203e-04
-0.073538 2.275343e-04
-0.073413 2.256292e-04
-0.073288 2.237051e-04
-0.073163 2.217622e-04
-0.073038 2.198006e-04
-0.072913 2.178206e-04
-0.072788 2.158223e-04
-0.072663 2.138059e-04
-0.072538 2.117715e-04
-0.072413 2.097194e-04
-0.072288 2.076496e-04
-0.072163 2.055624e-04
-0.072038 2.034580e-04
-0.071913 2.013366e-04
-0.071788 1.991982e-04
-0.071663 1.970432e-04
-0.071538 1.948717e-04
-0.071413 1.926838e-04
-0.071288 1.904798e-04
-0.071163 1.882599e-04
-0.071038 1.860243e-04
-0.070913 1.837730e-04
-0.070788 1.815064e-04
-0.070663 1.792247e-04
-0.070538 1.769279e-04
-0.070413 1.746164e-04
-0.070288 1.722903e-04
-0.070163 1.699499e-04
-0.070038 1.675952e-04
-0.069913 1.652266e-04
-0.069788 1.628442e-04
-0.069663 1.604482e-04
-0.069538 1.580389e-04
-0.069413 1.556164e-04
-0.069288 1.531810e-04
-0.069163 1.507328e-04
-0.069038 1.482721e-04
-0.068913 1.457991e-04
-0.068788 1.433139e-04
-0.068663 1.408169e-04
-0.068538 1.383082e-04
-0.068413 1.357880e-04
-0.068288 1.332566e-04
-0.068163 1.307141e-04
-0.068038 1.281608e-04
-0.067913 1.255969e-04
-0.067788 1.230226e-04
-0.067663 1.204382e-04
-0.067538 1.178438e-04
-0.067413 1.152397e-04
-0.067288 1.126261e-04
-0.067163 1.100032e-04
-0.067038 1.073713e-04
-0.066913 1.047305e-04
-0.066788 1.020812e-04
-0.066663 9.942341e-05
-0.066538 9.675753e-05
-0.066413 9.408371e-05
-0.066288 9.140221e-05
-0.066163 8.871324e-05
-0.066038 8.601702e-05
-0.065913 8.331380e-05
-0.065788 8.060381e-05
-0.065663 7.788726e-05
-0.065538 7.516440e-05
-0.065413 7.243545e-05
-0.065288 6.970065e-05
-0.065163 6.696024e-05
-0.065038 6.421443e-05
-0.064913 6.146347e-05
-0.064788 5.870759e-05
-0.064663 5.594702e-05
-0.064538 5.318200e-05
-0.064413 5.041277e-05
-0.064288 4.763955e-05
-0.064163 4.486259e-05
-0.064038 4.208212e-05
-0.063913 3.929838e-05
-0.063788 3.651159e-05
-0.063663 3.372201e-05
-0.063538 3.092986e-05
-0.063413 2.813538e-05
-0.063288 2.533881e-05
-0.063163 2.254039e-05
-0.063038 1.974035e-05
-0.062913 1.693893e-05
-0.062788 1.413637e-05
-0.062663 1.133290e-05
-0.062538 8.528769e-06
-0.062413 5.724206e-06
-0.062288 2.919451e-06
-0.062163 1.147412e-07
-0.062038 -2.689686e-06
-0.061913 -5.493594e-06
-0.061788 -8.296744e-06
-0.061663 -1.109890e-05
-0.061538 -1.389983e-05
-0.061413 -1.669928e-05
-0.061288 -1.949703e-05
-0.061163 -2.229284e-05
-0.061038 -2.508648e-05
-0.060913 -2.787770e-05
-0.060788 -3.066627e-05
-0.060663 -3.345195e-05
-0.060538 -3.623452e-05
-0.060413 -3.901372e-05
-0.060288 -4.178934e-05
-0.060163 -4.456114e-05
-0.060038 -4.732888e-05
-0.059913 -5.009232e-05
-0.059788 -5.285124e-05
-0.059663 -5.560540e-05
-0.059538 -5.835458e-05
-0.059413 -6.109853e-05
-0.059288 -6.383703e-05
-0.059163 -6.656984e-05
-0.059038 -6.929674e-05
-0.058913 -7.201750e-05
-0.058788 -7.473188e-05
-0.058663 -7.743967e-05
-0.058538 -8.014062e-05
-0.058413 -8.283452e-05
-0.058288 -8.552113e-05
-0.058163 -8.820023e-05
-0.058038 -9.087160e-05
-0.057913 -9.353500e-05
-0.057788 -9.619023e-05
-0.057663 -9.883704e-05
-0.057538 -1.014752e-04
-0.057413 -1.041046e-04
-0.057288 -1.067248e-04
-0.057163 -1.093358e-04
-0.057038 -1.119373e-04
-0.056913 -1.145290e-04
-0.056788 -1.171108e-04
-0.056663 -1.196824e-04
-0.056538 -1.222436e-04
-0.056413 -1.247943e-04
-0.056288 -1.273341e-04
-0.056163 -1.298629e-04
-0.056038 -1.323805e-04
-0.055913 -1.348866e-04
-0.055788 -1.373811e-04
-0.055663 -1.398637e-04
-0.055538 -1.423342e-04
-0.055413 -1.447924e-04
-0.055288 -1.472382e-04
-0.055163 -1.496713e-04
-0.055038 -1.520915e-04
-0.054913 -1.544986e-04
-0.054788 -1.568923e-04
-0.054663 -1.592726e-04
-0.054538 -1.616392e-04
-0.054413 -1.639919e-04
-0.054288 -1.663305e-04
-0.054163 -1.686548e-04
-0.054038 -1.709647e-04
-0.053913 -1.732598e-04
-0.053788 -1.755401e-04
-0.053663 -1.778054e-04
-0.053538 -1.800554e-04
-0.053413 -1.822899e-04
-0.053288 -1.845089e-04
-0.053163 -1.867120e-04
-0.053038 -1.888992e-04
-0.052913 -1.910701e-04
-0.052788 -1.932248e-04
-0.052663 -1.953629e-04
-0.052538 -1.974842e-04
-0.052413 -1.995887e-04
-0.052288 -2.016762e-04
-0.052163 -2.037464e-04
-0.052038 -2.057992e-04
-0.051913 -2.078344e-04
-0.051788 -2.098519e-04
-0.051663 -2.118514e-04
-0.051538 -2.138329e-04
-0.051413 -2.157962e-04
-0.051288 -2.177410e-04
-0.051163 -2.196672e-04
-0.051038 -2.215748e-04
-0.050913 -2.234634e-04
-0.050788 -2.253330e-04
-0.050663 -2.271834e-04
-0.050538 -2.290145e-04
-0.050413 -2.308260e-04
-0.050288 -2.326179e-04
-0.050163 -2.343900e-04
-0.050038 -2.361422e-04
-0.049913 -2.378742e-04
-0.049788 -2.395860e-04
-0.049663 -2.412775e-04
-0.049538 -2.429484e-04
-0.049413 -2.445987e-04
-0.049288 -2.462282e-04
-0.049163 -2.478367e-04
-0.049038 -2.494242e-04
-0.048913 -2.509906e-04
-0.048788 -2.525356e-04
-0.048663 -2.540591e-04
-0.048538 -2.555611e-04
-0.048413 -2.570414e-04
-0.048288 -2.584999e-04
-0.048163 -2.599364e-04
-0.048038 -2.613509e-04
-0.047913 -2.627433e-04
-0.047788 -2.641133e-04
-0.047663 -2.654610e-04
-0.047538 -2.667862e-04
-0.047413 -2.680887e-04
-0.047288 -2.693685e-04
-0.047163 -2.706256e-04
-0.047038 -2.718596e-04
-0.046913 -2.730707e-04
-0.046788 -2.742586e-04
-0.046663 -2.754234e-04
-0.046538 -2.765648e-04
-0.046413 -2.776828e-04
-0.046288 -2.787773e-04
-0.046163 -2.798482e-04
-0.046038 -2.808954e-04
-0.045913 -2.819189e-04
-0.045788 -2.829186e-04
-0.045663 -2.838943e-04
-0.045538 -2.848461e-04
-0.045413 -2.857737e-04
-0.045288 -2.866772e-04
-0.045163 -2.875565e-04
-0.045038 -2.884115e-04
-0.044913 -2.892422e-04
-0.044788 -2.900484e-04
-0.044663 -2.908301e-04
-0.044538 -2.915873e-04
-0.044413 -2.923199e-04
-0.044288 -2.930278e-04
-0.044163 -2.937110e-04
-0.044038 -2.943694e-04
-0.043913 -2.950029e-04
-0.043788 -2.956116e-04
-0.043663 -2.961954e-04
-0.043538 -2.967542e-04
-0.043413 -2.972880e-04
-0.043288 -2.977967e-04
-0.043163 -2.982803e-04
-0.043038 -2.987388e-04
-0.042913 -2.991722e-04
-0.042788 -2.995803e-04
-0.042663 -2.999632e-04
-0.042538 -3.003209e-04
-0.042413 -3.006533e-04
-0.042288 -3.009604e-04
-0.042163 -3.012421e-04
-0.042038 -3.014985e-04
-0.041913 -3.017296e-04
-0.041788 -3.019353e-04
-0.041663 -3.021155e-04
-0.041538 -3.022704e-04
-0.041413 -3.023999e-04
-0.041288 -3.025039e-04
-0.041163 -3.025825e-04
-0.041038 -3.026357e-04
-0.040913 -3.026635e-04
-0.040788 -3.026659e-04
-0.040663 -3.026428e-04
-0.040538 -3.025943e-04
-0.040413 -3.025204e-04
-0.040288 -3.024212e-04
-0.040163 -3.022965e-04
-0.040038 -3.021465e-04
-0.039913 -3.019711e-04
-0.039788 -3.017705e-04
-0.039663 -3.015445e-04
-0.039538 -3.012932e-04
-0.039413 -3.010166e-04
-0.039288 -3.007149e-04
-0.039163 -3.003879e-04
-0.039038 -3.000357e-04
-0.038913 -2.996585e-04
-0.038788 -2.992561e-04
-0.038663 -2.988286e-04
-0.038538 -2.983762e-04
-0.038413 -2.978988e-04
-0.038288 -2.973964e-04
-0.038163 -2.968691e-04
-0.038038 -2.963170e-04
-0.037913 -2.957402e-04
-0.037788 -2.951386e-04
-0.037663 -2.945123e-04
-0.037538 -2.938614e-04
-0.037413 -2.931859e-04
-0.037288 -2.924859e-04
-0.037163 -2.917615e-04
-0.037038 -2.910127e-04
-0.036913 -2.902396e-04
-0.036788 -2.894423e-04
-0.036663 -2.886208e-04
-0.036538 -2.877753e-04
-0.036413 -2.869057e-04
-0.036288 -2.860122e-04
-0.036163 -2.850948e-04
-0.036038 -2.841536e-04
-0.035913 -2.831888e-04
-0.035788 -2.822003e-04
-0.035663 -2.811884e-04
-0.035538 -2.801530e-04
-0.035413 -2.790942e-04
-0.035288 -2.780123e-04
-0.035163 -2.769071e-04
-0.035038 -2.757790e-04
-0.034913 -2.746278e-04
-0.034788 -2.734539e-04
-0.034663 -2.722571e-04
-0.034538 -2.710378e-04
-0.034413 -2.697959e-04
-0.034288 -2.685315e-04
-0.034163 -2.672449e-04
-0.034038 -2.659360e-04
-0.033913 -2.646051e-04
-0.033788 -2.632522e-04
-0.033663 -2.618774e-04
-0.033538 -2.604809e-04
-0.033413 -2.590628e-04
-0.033288 -2.576232e-04
-0.033163 -2.561622e-04
-0.033038 -2.546800e-04
-0.032913 -2.531767e-04
-0.032788 -2.516525e-04
-0.032663 -2.501073e-04
-0.032538 -2.485415e-04
-0.032413 -2.469551e-04
-0.032288 -2.453482e-04
-0.032163 -2.437211e-04
-0.032038 -2.420738e-04
-0.031913 -2.404064e-04
-0.031788 -2.387193e-04
-0.031663 -2.370123e-04
-0.031538 -2.352859e-04
-0.031413 -2.335399e-04
-0.031288 -2.317748e-04
-0.031163 -2.299904e-04
-0.031038 -2.281872e-04
-0.030913 -2.263651e-04
-0.030788 -2.245243e-04
-0.030663 -2.226650e-04
-0.030538 -2.207875e-04
-0.030413 -2.188917e-04
-0.030288 -2.169779e-04
-0.030163 -2.150463e-04
-0.030038 -2.130970e-04
-0.029913 -2.111302e-04
-0.029788 -2.091460e-04
-0.029663 -2.071447e-04
-0.029538 -2.051263e-04
-0.029413 -2.030912e-04
-0.029288 -2.010393e-04
-0.029163 -1.989710e-04
-0.029038 -1.968864e-04
-0.028913 -1.947857e-04
-0.028788 -1.926691e-04
-0.028663 -1.905366e-04
-0.028538 -1.883887e-04
-0.028413 -1.862253e-04
-0.028288 -1.840467e-04
-0.028163 -1.818531e-04
-0.028038 -1.796446e-04
-0.027913 -1.774215e-04
-0.027788 -1.751840e-04
-0.027663 -1.729322e-04
-0.027538 -1.706664e-04
-0.027413 -1.683866e-04
-0.027288 -1.660932e-04
-0.027163 -1.637863e-04
-0.027038 -1.614661e-04
-0.026913 -1.591328e-04
-0.026788 -1.567867e-04
-0.026663 -1.544278e-04
-0.026538 -1.520565e-04
-0.026413 -1.496729e-04
-0.026288 -1.472772e-04
-0.026163 -1.448696e-04
-0.026038 -1.424504e-04
-0.025913 -1.400197e-04
-0.025788 -1.375777e-04
-0.025663 -1.351247e-04
-0.025538 -1.326608e-04
-0.025413 -1.301863e-04
-0.025288 -1.277014e-04
-0.025163 -1.252063e-04
-0.025038 -1.227012e-04
-0.024913 -1.201864e-04
-0.024788 -1.176619e-04
-0.024663 -1.151281e-04
-0.024538 -1.125852e-04
-0.024413 -1.100333e-04
-0.024288 -1.074728e-04
-0.024163 -1.049037e-04
-0.024038 -1.023264e-04
-0.023913 -9.974109e-05
-0.023788 -9.714791e-05
-0.023663 -9.454712e-05
-0.023538 -9.193895e-05
-0.023413 -8.932362e-05
-0.023288 -8.670134e-05
-0.023163 -8.407234e-05
-0.023038 -8.143685e-05
-0.022913 -7.879508e-05
-0.022788 -7.614727e-05
-0.022663 -7.349363e-05
-0.022538 -7.083440e-05
-0.022413 -6.816979e-05
-0.022288 -6.550004e-05
-0.022163 -6.282537e-05
-0.022038 -6.014600e-05
-0.021913 -5.746217e-05
-0.021788 -5.477409e-05
-0.021663 -5.208201e-05
-0.021538 -4.938615e-05
-0.021413 -4.668672e-05
-0.021288 -4.398398e-05
-0.021163 -4.127814e-05
-0.021038 -3.856942e-05
-0.020913 -3.585807e-05
-0.020788 -3.314431e-05
-0.020663 -3.042837e-05
-0.020538 -2.771049e-05
-0.020413 -2.499088e-05
-0.020288 -2.226978e-05
-0.020163 -1.954742e-05
-0.020038 -1.682403e-05
-0.019913 -1.409984e-05
-0.019788 -1.137508e-05
-0.019663 -8.649988e-06
-0.019538 -5.924783e-06
-0.019413 -3.199699e-06
-0.019288 -4.749660e-07
-0.019163 2.249185e-06
-0.019038 4.972525e-06
-0.018913 7.694824e-06
-0.018788 1.041585e-05
-0.018663 1.313538e-05
-0.018538 1.585317e-05
-0.018413 1.856901e-05
-0.018288 2.128266e-05
-0.018163 2.399389e-05
-0.018038 2.670248e-05
-0.017913 2.940819e-05
-0.017788 3.211080e-05
-0.017663 3.481008e-05
-0.017538 3.750581e-05
-0.017413 4.019775e-05
-0.017288 4.288568e-05
-0.017163 4.556937e-05
-0.017038 4.824860e-05
-0.016913 5.092314e-05
-0.016788 5.359277e-05
-0.016663 5.625726e-05
-0.016538 5.891639e-05
-0.016413 6.156993e-05
-0.016288 6.421766e-05
-0.016163 6.685936e-05
-0.016038 6.949481e-05
-0.015913 7.212379e-05
-0.015788 7.474606e-05
-0.015663 7.736143e-05
-0.015538 7.996965e-05
-0.015413 8.257052e-05
-0.015288 8.516382e-05
-0.015163 8.774933e-05
-0.015038 9.032683e-05
-0.014913 9.289611e-05
-0.014788 9.545694e-05
-0.014663 9.800913e-05
-0.014538 1.005524e-04
-0.014413 1.030867e-04
-0.014288 1.056116e-04
-0.014163 1.081271e-04
-0.014038 1.106328e-04
-0.013913 1.131286e-04
-0.013788 1.156142e-04
-0.013663 1.180895e-04
-0.013538 1.205543e-04
-0.013413 1.230083e-04
-0.013288 1.254514e-04
-0.013163 1.278832e-04
-0.013038 1.303037e-04
-0.012913 1.327127e-04
-0.012788 1.351098e-04
-0.012663 1.374950e-04
-0.012538 1.398681e-04
-0.012413 1.422287e-04
-0.012288 1.445768e-04
-0.012163 1.469121e-04
-0.012038 1.492345e-04
-0.011913 1.515437e-04
-0.011788 1.538395e-04
-0.011663 1.561218e-04
-0.011538 1.583904e-04
-0.011413 1.606451e-04
-0.011288 1.628857e-04
-0.011163 1.651120e-04
-0.011038 1.673238e-04
-0.010913 1.695209e-04
-0.010788 1.717032e-04
-0.010663 1.738705e-04
-0.010538 1.760226e-04
-0.010413 1.781592e-04
-0.010288 1.802804e-04
-0.010163 1.823857e-04
-0.010038 1.844752e-04
-0.009913 1.865486e-04
-0.009788 1.886057e-04
-0.009663 1.906464e-04
-0.009538 1.926705e-04
-0.009413 1.946778e-04
-0.009288 1.966682e-04
-0.009163 1.986415e-04
-0.009038 2.005975e-04
-0.008913 2.025361e-04
-0.008788 2.044572e-04
-0.008663 2.063604e-04
-0.008538 2.082458e-04
-0.008413 2.101131e-04
-0.008288 2.119622e-04
-0.008163 2.137930e-04
-0.008038 2.156052e-04
-0.007913 2.173988e-04
-0.007788 2.191735e-04
-0.007663 2.209293e-04
-0.007538 2.226659e-04
-0.007413 2.243834e-04
-0.007288 2.260814e-04
-0.007163 2.277599e-04
-0.007038 2.294187e-04
-0.006913 2.310578e-04
-0.006788 2.326769e-04
-0.006663 2.342759e-04
-0.006538 2.358547e-04
-0.006413 2.374132e-04
-0.006288 2.389512e-04
-0.006163 2.404686e-04
-0.006038 2.419654e-04
-0.005913 2.434412e-04
-0.005788 2.448962e-04
-0.005663 2.463300e-04
-0.005538 2.477427e-04
-0.005413 2.491340e-04
-0.005288 2.505039e-04
-0.005163 2.518523e-04
-0.005038 2.531791e-04
-0.004913 2.544841e-04
-0.004788 2.557672e-04
-0.004663 2.570284e-04
-0.004538 2.582675e-04
-0.004413 2.594845e-04
-0.004288 2.606792e-04
-0.004163 2.618515e-04
-0.004038 2.630014e-04
-0.003913 2.641287e-04
-0.003788 2.652334e-04
-0.003663 2.663153e-04
-0.003538 2.673745e-04
-0.003413 2.684107e-04
-0.003288 2.694239e-04
-0.003163 2.704141e-04
-0.003038 2.713812e-04
-0.002913 2.723250e-04
-0.002788 2.732455e-04
-0.002663 2.741426e-04
-0.002538 2.750163e-04
-0.002413 2.758665e-04
-0.002288 2.766931e-04
-0.002163 2.774961e-04
-0.002038 2.782753e-04
-0.001913 2.790308e-04
-0.001788 2.797624e-04
-0.001663 2.804702e-04
-0.001538 2.811540e-04
-0.001413 2.818138e-04
-0.001288 2.824496e-04
-0.001163 2.830613e-04
-0.001038 2.836488e-04
-0.000913 2.842121e-04
-0.000788 2.847512e-04
-0.000663 2.852660e-04
-0.000538 2.857565e-04
-0.000413 2.862227e-04
-0.000288 2.866645e-04
-0.000163 2.870818e-04
-0.000038 2.874747e-04
0.000087 2.878432e-04
0.000212 2.881871e-04
0.000337 2.885065e-04
0.000462 2.888013e-04
0.000587 2.890716e-04
0.000712 2.893173e-04
0.000837 2.895384e-04
0.000962 2.897348e-04
0.001087 2.899066e-04
0.001212 2.900538e-04
0.001337 2.901763e-04
0.001462 2.902742e-04
0.001587 2.903474e-04
0.001712 2.903960e-04
0.001837 2.904199e-04
0.001962 2.904191e-04
0.002087 2.903936e-04
0.002212 2.903436e-04
0.002337 2.902689e-04
0.002462 2.901695e-04
0.002587 2.900455e-04
0.002712 2.898970e-04
0.002837 2.897238e-04
0.002962 2.895261e-04
0.003087 2.893039e-04
0.003212 2.890571e-04
0.003337 2.887858e-04
0.003462 2.884901e-04
0.003587 2.881699e-04
0.003712 2.878253e-04
0.003837 2.874564e-04
0.003962 2.870631e-04
0.004087 2.866455e-04
0.004212 2.862036e-04
0.004337 2.857376e-04
0.004462 2.852473e-04
0.004587 2.847330e-04
0.004712 2.841945e-04
0.004837 2.836320e-04
0.004962 2.830456e-04
0.005087 2.824352e-04
0.005212 2.818009e-04
0.005337 2.811429e-04
0.005462 2.804610e-04
0.005587 2.797555e-04
0.005712 2.790264e-04
0.005837 2.782737e-04
0.005962 2.774975e-04
0.006087 2.766979e-04
0.006212 2.758750e-04
0.006337 2.750287e-04
0.006462 2.741593e-04
0.006587 2.732667e-04
0.006712 2.723511e-04
0.006837 2.714126e-04
0.006962 2.704511e-04
0.007087 2.694669e-04
0.007212 2.684600e-04
0.007337 2.674304e-04
0.007462 2.663783e-04
0.007587 2.653038e-04
0.007712 2.642070e-04
0.007837 2.630879e-04
0.007962 2.619467e-04
0.008087 2.607834e-04
0.008212 2.595982e-04
0.008337 2.583912e-04
0.008462 2.571624e-04
0.008587 2.559120e-04
0.008712 2.546401e-04
0.008837 2.533468e-04
0.008962 2.520322e-04
0.009087 2.506964e-04
0.009212 2.493396e-04
0.009337 2.479619e-04
0.009462 2.465633e-04
0.009587 2.451440e-04
0.009712 2.437042e-04
0.009837 2.422439e-04
0.009962 2.407633e-04
0.010087 2.392625e-04
0.010212 2.377416e-04
0.010337 2.362009e-04
0.010462 2.346403e-04
0.010587 2.330600e-04
0.010712 2.314603e-04
0.010837 2.298412e-04
0.010962 2.282028e-04
0.011087 2.265453e-04
0.011212 2.248689e-04
0.011337 2.231736e-04
0.011462 2.214597e-04
0.011587 2.197273e-04
0.011712 2.179765e-04
0.011837 2.162075e-04
0.011962 2.144204e-04
0.012087 2.126154e-04
0.012212 2.107927e-04
0.012337 2.089524e-04
0.012462 2.070946e-04
0.012587 2.052195e-04
0.012712 2.033274e-04
0.012837 2.014183e-04
0.012962 1.994924e-04
0.013087 1.975498e-04
0.013212 1.955909e-04
0.013337 1.936156e-04
0.013462 1.916242e-04
0.013587 1.896169e-04
0.013712 1.875938e-04
0.013837 1.855551e-04
0.013962 1.835010e-04
0.014087 1.814316e-04
0.014212 1.793471e-04
0.014337 1.772478e-04
0.014462 1.751337e-04
0.014587 1.730052e-04
0.014712 1.708622e-04
0.014837 1.687051e-04
0.014962 1.665341e-04
0.015087 1.643492e-04
0.015212 1.621507e-04
0.015337 1.599388e-04
0.015462 1.577137e-04
0.015587 1.554756e-04
0.015712 1.532246e-04
0.015837 1.509609e-04
0.015962 1.486848e-04
0.016087 1.463964e-04
0.016212 1.440959e-04
0.016337 1.417836e-04
0.016462 1.394596e-04
0.016587 1.371241e-04
0.016712 1.347773e-04
0.016837 1.324195e-04
0.016962 1.300507e-04
0.017087 1.276713e-04
0.017212 1.252815e-04
0.017337 1.228813e-04
0.017462 1.204711e-04
0.017587 1.180510e-04
0.017712 1.156213e-04
0.017837 1.131821e-04
0.017962 1.107337e-04
0.018087 1.082763e-04
0.018212 1.058100e-04
0.018337 1.033352e-04
0.018462 1.008519e-04
0.018587 9.836045e-05
0.018712 9.586102e-05
0.018837 9.335382e-05
0.018962 9.083907e-05
0.019087 8.831699e-05
0.019212 8.578778e-05
0.019337 8.325166e-05
0.019462 8.070885e-05
0.019587 7.815956e-05
0.019712 7.560402e-05
0.019837 7.304243e-05
0.019962 7.047501e-05
0.020087 6.790199e-05
0.020212 6.532357e-05
0.020337 6.273999e-05
0.020462 6.015146e-05
0.020587 5.755819e-05
0.020712 5.496041e-05
0.020837 5.235834e-05
0.020962 4.975220e-05
0.021087 4.714221e-05
0.021212 4.452859e-05
0.021337 4.191156e-05
0.021462 3.929134e-05
0.021587 3.666816e-05
0.021712 3.404224e-05
0.021837 3.141380e-05
0.021962 2.878306e-05
0.022087 2.615024e-05
0.022212 2.351558e-05
0.022337 2.087928e-05
0.022462 1.824158e-05
0.022587 1.560269e-05
0.022712 1.296285e-05
0.022837 1.032227e-05
0.022962 7.681169e-06
0.023087 5.039781e-06
0.023212 2.398326e-06
0.023337 -2.429744e-07
0.023462 -2.883896e-06
0.023587 -5.524216e-06
0.023712 -8.163712e-06
0.023837 -1.080216e-05
0.023962 -1.343934e-05
0.024087 -1.607503e-05
0.024212 -1.870900e-05
0.024337 -2.134104e-05
0.024462 -2.397091e-05
0.024587 -2.659841e-05
0.024712 -2.922331e-05
0.024837 -3.184538e-05
0.024962 -3.446441e-05
0.025087 -3.708017e-05
0.025212 -3.969245e-05
0.025337 -4.230103e-05
0.025462 -4.490568e-05
0.025587 -4.750619e-05
0.025712 -5.010233e-05
0.025837 -5.269389e-05
0.025962 -5.528066e-05
0.026087 -5.786241e-05
0.026212 -6.043892e-05
0.026337 -6.300999e-05
0.026462 -6.557539e-05
0.026587 -6.813491e-05
0.026712 -7.068833e-05
0.026837 -7.323544e-05
0.026962 -7.577602e-05
0.027087 -7.830986e-05
0.027212 -8.083676e-05
0.027337 -8.335649e-05
0.027462 -8.586884e-05
0.027587 -8.837361e-05
0.027712 -9.087059e-05
0.027837 -9.335956e-05
0.027962 -9.584031e-05
0.028087 -9.831264e-05
0.028212 -1.007763e-04
0.028337 -1.032312e-04
0.028462 -1.056770e-04
0.028587 -1.081136e-04
0.028712 -1.105407e-04
0.028837 -1.129582e-04
0.028962 -1.153658e-04
0.029087 -1.177634e-04
0.029212 -1.201507e-04
0.029337 -1.225276e-04
0.029462 -1.248938e-04
0.029587 -1.272491e-04
0.029712 -1.295934e-04
0.029837 -1.319264e-04
0.029962 -1.342480e-04
0.030087 -1.365580e-04
0.030212 -1.388561e-04
0.030337 -1.411422e-04
0.030462 -1.434161e-04
0.030587 -1.456776e-04
0.030712 -1.479265e-04
0.030837 -1.501627e-04
0.030962 -1.523858e-04
0.031087 -1.545959e-04
0.031212 -1.567926e-04
0.031337 -1.589757e-04
0.031462 -1.611452e-04
0.031587 -1.633008e-04
0.031712 -1.654423e-04
0.031837 -1.675696e-04
0.031962 -1.696825e-04
0.032087 -1.717808e-04
0.032212 -1.738643e-04
0.032337 -1.759329e-04
0.032462 -1.779864e-04
0.032587 -1.800246e-04
0.032712 -1.820474e-04
0.032837 -1.840545e-04
0.032962 -1.860459e-04
0.033087 -1.880213e-04
0.033212 -1.899806e-04
0.033337 -1.919237e-04
0.033462 -1.938502e-04
0.033587 -1.957602e-04
0.033712 -1.976535e-04
0.033837 -1.995298e-04
0.033962 -2.013891e-04
0.034087 -2.032311e-04
0.034212 -2.050558e-04
0.034337 -2.068630e-04
0.034462 -2.086525e-04
0.034587 -2.104241e-04
0.034712 -2.121778e-04
0.034837 -2.139134e-04
0.034962 -2.156307e-04
0.035087 -2.173297e-04
0.035212 -2.190101e-04
0.035337 -2.206718e-04
0.035462 -2.223148e-04
0.035587 -2.239387e-04
0.035712 -2.255436e-04
0.035837 -2.271293e-04
0.035962 -2.286957e-04
0.036087 -2.302425e-04
0.036212 -2.317698e-04
0.036337 -2.332774e-04
0.036462 -2.347651e-04
0.036587 -2.362328e-04
0.036712 -2.376805e-04
0.036837 -2.391080e-04
0.036962 -2.405151e-04
0.037087 -2.419018e-04
0.037212 -2.432679e-04
0.037337 -2.446134e-04
0.037462 -2.459381e-04
0.037587 -2.472419e-04
0.037712 -2.485248e-04
0.037837 -2.497865e-04
0.037962 -2.510271e-04
0.038087 -2.522463e-04
0.038212 -2.534442e-04
0.038337 -2.546206e-04
0.038462 -2.557754e-04
0.038587 -2.569085e-04
0.038712 -2.580198e-04
0.038837 -2.591093e-04
0.038962 -2.601769e-04
0.039087 -2.612224e-04
0.039212 -2.622458e-04
0.039337 -2.632469e-04
0.039462 -2.642259e-04
0.039587 -2.651824e-04
0.039712 -2.661165e-04
0.039837 -2.670281e-04
0.039962 -2.679171e-04
0.040087 -2.687835e-04
0.040212 -2.696271e-04
0.040337 -2.704480e-04
0.040462 -2.712460e-04
0.040587 -2.720211e-04
0.040712 -2.727732e-04
0.040837 -2.735023e-04
0.040962 -2.742082e-04
0.041087 -2.748911e-04
0.041212 -2.755507e-04
0.041337 -2.761870e-04
0.041462 -2.768001e-04
0.041587 -2.773898e-04
0.041712 -2.779561e-04
0.041837 -2.784990e-04
0.041962 -2.790184e-04
0.042087 -2.795143e-04
0.042212 -2.799866e-04
0.042337 -2.804353e-04
0.042462 -2.808604e-04
0.042587 -2.812619e-04
0.042712 -2.816396e-04
0.042837 -2.819936e-04
0.042962 -2.823239e-04
0.043087 -2.826305e-04
0.043212 -2.829132e-04
0.043337 -2.831722e-04
0.043462 -2.834073e-04
0.043587 -2.836186e-04
0.043712 -2.838060e-04
0.043837 -2.839696e-04
0.043962 -2.841093e-04
0.044087 -2.842251e-04
0.044212 -2.843171e-04
0.044337 -2.843851e-04
0.044462 -2.844293e-04
0.044587 -2.844496e-04
0.044712 -2.844460e-04
0.044837 -2.844185e-04
0.044962 -2.843672e-04
0.045087 -2.842920e-04
0.045212 -2.841929e-04
0.045337 -2.840700e-04
0.045462 -2.839233e-04
0.045587 -2.837527e-04
0.045712 -2.835584e-04
0.045837 -2.833403e-04
0.045962 -2.830985e-04
0.046087 -2.828330e-04
0.046212 -2.825437e-04
0.046337 -2.822308e-04
0.046462 -2.818943e-04
0.046587 -2.815341e-04
0.046712 -2.811505e-04
0.046837 -2.807432e-04
0.046962 -2.803125e-04
0.047087 -2.798584e-04
0.047212 -2.793808e-04
0.047337 -2.788799e-04
0.047462 -2.783556e-04
0.047587 -2.778081e-04
0.047712 -2.772374e-04
0.047837 -2.766435e-04
0.047962 -2.760266e-04
0.048087 -2.753865e-04
0.048212 -2.747235e-04
0.048337 -2.740376e-04
0.048462 -2.733288e-04
0.048587 -2.725971e-04
0.048712 -2.718428e-04
0.048837 -2.710658e-04
0.048962 -2.702661e-04
0.049087 -2.694440e-04
0.049212 -2.685994e-04
0.049337 -2.677324e-04
0.049462 -2.668431e-04
0.049587 -2.659316e-04
0.049712 -2.649980e-04
0.049837 -2.640423e-04
0.049962 -2.630646e-04
0.050087 -2.620650e-04
0.050212 -2.610437e-04
0.050337 -2.600006e-04
0.050462 -2.589359e-04
0.050587 -2.578498e-04
0.050712 -2.567421e-04
0.050837 -2.556132e-04
0.050962 -2.544630e-04
0.051087 -2.532918e-04
0.051212 -2.520994e-04
0.051337 -2.508862e-04
0.051462 -2.496522e-04
0.051587 -2.483974e-04
0.051712 -2.471221e-04
0.051837 -2.458263e-04
0.051962 -2.445101e-04
0.052087 -2.431737e-04
0.052212 -2.418171e-04
0.052337 -2.404406e-04
0.052462 -2.390441e-04
0.052587 -2.376278e-04
0.052712 -2.361919e-04
0.052837 -2.347365e-04
0.052962 -2.332617e-04
0.053087 -2.317676e-04
0.053212 -2.302544e-04
0.053337 -2.287221e-04
0.053462 -2.271710e-04
0.053587 -2.256011e-04
0.053712 -2.240127e-04
0.053837 -2.224057e-04
0.053962 -2.207805e-04
0.054087 -2.191370e-04
0.054212 -2.174755e-04
0.054337 -2.157962e-04
0.054462 -2.140990e-04
0.054587 -2.123843e-04
0.054712 -2.106520e-04
0.054837 -2.089025e-04
0.054962 -2.071358e-04
0.055087 -2.053521e-04
0.055212 -2.035516e-04
0.055337 -2.017344e-04
0.055462 -1.999006e-04
0.055587 -1.980504e-04
0.055712 -1.961840e-04
0.055837 -1.943016e-04
0.055962 -1.924032e-04
0.056087 -1.904891e-04
0.056212 -1.885595e-04
0.056337 -1.866144e-04
0.056462 -1.846541e-04
0.056587 -1.826788e-04
0.056712 -1.806885e-04
0.056837 -1.786835e-04
0.056962 -1.766639e-04
0.057087 -1.746300e-04
0.057212 -1.725818e-04
0.057337 -1.705197e-04
0.057462 -1.684436e-04
0.057587 -1.663539e-04
0.057712 -1.642507e-04
0.057837 -1.621342e-04
0.057962 -1.600045e-04
0.058087 -1.578619e-04
0.058212 -1.557065e-04
0.058337 -1.535385e-04
0.058462 -1.513582e-04
0.058587 -1.491656e-04
0.058712 -1.469610e-04
0.058837 -1.447445e-04
0.058962 -1.425164e-04
0.059087 -1.402768e-04
0.059212 -1.380260e-04