-0.102788 5.646944e-05
-0.102663 -6.021614e-05
-0.102538 -1.771053e-04
-0.102413 -2.941917e-04
-0.102288 -4.114687e-04
-0.102163 -5.289300e-04
-0.102038 -6.465689e-04
-0.101913 -7.643790e-04
-0.101788 -8.823536e-04
-0.101663 -1.000486e-03
-0.101538 -1.118770e-03
-0.101413 -1.237199e-03
-0.101288 -1.355765e-03
-0.101163 -1.474463e-03
-0.101038 -1.593285e-03
-0.100913 -1.712226e-03
-0.100788 -1.831277e-03
-0.100663 -1.950432e-03
-0.100538 -2.069684e-03
-0.100413 -2.189027e-03
-0.100288 -2.308453e-03
-0.100163 -2.427955e-03
-0.100038 -2.547527e-03
-0.099913 -2.667161e-03
-0.099788 -2.786851e-03
-0.099663 -2.906589e-03
-0.099538 -3.026367e-03
-0.099413 -3.146180e-03
-0.099288 -3.266020e-03
-0.099163 -3.385879e-03
-0.099038 -3.505751e-03
-0.098913 -3.625627e-03
-0.098788 -3.745501e-03
-0.098663 -3.865365e-03
-0.098538 -3.985213e-03
-0.098413 -4.105035e-03
-0.098288 -4.224826e-03
-0.098163 -4.344577e-03
-0.098038 -4.464281e-03
-0.097913 -4.583930e-03
-0.097788 -4.703517e-03
-0.097663 -4.823034e-03
-0.097538 -4.942473e-03
-0.097413 -5.061827e-03
-0.097288 -5.181088e-03
-0.097163 -5.300248e-03
-0.097038 -5.419299e-03
-0.096913 -5.538234e-03
-0.096788 -5.657044e-03
-0.096663 -5.775721e-03
-0.096538 -5.894258e-03
-0.096413 -6.012647e-03
-0.096288 -6.130879e-03
-0.096163 -6.248946e-03
-0.096038 -6.366840e-03
-0.095913 -6.484554e-03
-0.095788 -6.602078e-03
-0.095663 -6.719405e-03
-0.095538 -6.836526e-03
-0.095413 -6.953433e-03
-0.095288 -7.070118e-03
-0.095163 -7.186572e-03
-0.095038 -7.302786e-03
-0.094913 -7.418754e-03
-0.094788 -7.534465e-03
-0.094663 -7.649911e-03
-0.094538 -7.765084e-03
-0.094413 -7.879975e-03
-0.094288 -7.994576e-03
-0.094163 -8.108878e-03
-0.094038 -8.222872e-03
-0.093913 -8.336549e-03
-0.093788 -8.449902e-03
-0.093663 -8.562920e-03
-0.093538 -8.675595e-03
-0.093413 -8.787919e-03
-0.093288 -8.899882e-03
-0.093163 -9.011476e-03
-0.093038 -9.122691e-03
-0.092913 -9.233519e-03
-0.092788 -9.343951e-03
-0.092663 -9.453977e-03
-0.092538 -9.563589e-03
-0.092413 -9.672778e-03
-0.092288 -9.781535e-03
-0.092163 -9.889850e-03
-0.092038 -9.997714e-03
-0.091913 -1.010512e-02
-0.091788 -1.021206e-02
-0.091663 -1.031851e-02
-0.091538 -1.042448e-02
-0.091413 -1.052996e-02
-0.091288 -1.063493e-02
-0.091163 -1.073938e-02
-0.091038 -1.084331e-02
-0.090913 -1.094671e-02
-0.090788 -1.104957e-02
-0.090663 -1.115187e-02
-0.090538 -1.125361e-02
-0.090413 -1.135479e-02
-0.090288 -1.145538e-02
-0.090163 -1.155539e-02
-0.090038 -1.165480e-02
-0.089913 -1.175360e-02
-0.089788 -1.185178e-02
-0.089663 -1.194934e-02
-0.089538 -1.204627e-02
-0.089413 -1.214255e-02
-0.089288 -1.223818e-02
-0.089163 -1.233315e-02
-0.089038 -1.242744e-02
-0.088913 -1.252106e-02
-0.088788 -1.261399e-02
-0.088663 -1.270621e-02
-0.088538 -1.279773e-02
-0.088413 -1.288854e-02
-0.088288 -1.297862e-02
-0.088163 -1.306796e-02
-0.088038 -1.315657e-02
-0.087913 -1.324442e-02
-0.087788 -1.333151e-02
-0.087663 -1.341783e-02
-0.087538 -1.350337e-02
-0.087413 -1.358812e-02
-0.087288 -1.367208e-02
-0.087163 -1.375523e-02
-0.087038 -1.383757e-02
-0.086913 -1.391909e-02
-0.086788 -1.399978e-02
-0.086663 -1.407963e-02
-0.086538 -1.415863e-02
-0.086413 -1.423678e-02
-0.086288 -1.431406e-02
-0.086163 -1.439048e-02
-0.086038 -1.446601e-02
-0.085913 -1.454066e-02
-0.085788 -1.461441e-02
-0.085663 -1.468726e-02
-0.085538 -1.475919e-02
-0.085413 -1.483021e-02
-0.085288 -1.490030e-02
-0.085163 -1.496946e-02
-0.085038 -1.503767e-02
-0.084913 -1.510494e-02
-0.084788 -1.517125e-02
-0.084663 -1.523660e-02
-0.084538 -1.530098e-02
-0.084413 -1.536438e-02
-0.084288 -1.542679e-02
-0.084163 -1.548822e-02
-0.084038 -1.554865e-02
-0.083913 -1.560807e-02
-0.083788 -1.566649e-02
-0.083663 -1.572388e-02
-0.083538 -1.578026e-02
-0.083413 -1.583560e-02
-0.083288 -1.588991e-02
-0.083163 -1.594318e-02
-0.083038 -1.599541e-02
-0.082913 -1.604658e-02
-0.082788 -1.609669e-02
-0.082663 -1.614574e-02
-0.082538 -1.619372e-02
-0.082413 -1.624063e-02
-0.082288 -1.628646e-02
-0.082163 -1.633121e-02
-0.082038 -1.637487e-02
-0.081913 -1.641744e-02
-0.081788 -1.645891e-02
-0.081663 -1.649928e-02
-0.081538 -1.653855e-02
-0.081413 -1.657671e-02
-0.081288 -1.661375e-02
-0.081163 -1.664968e-02
-0.081038 -1.668449e-02
-0.080913 -1.671818e-02
-0.080788 -1.675074e-02
-0.080663 -1.678217e-02
-0.080538 -1.681247e-02
-0.080413 -1.684164e-02
-0.080288 -1.686966e-02
-0.080163 -1.689655e-02
-0.080038 -1.692230e-02
-0.079913 -1.694690e-02
-0.079788 -1.697036e-02
-0.079663 -1.699267e-02
-0.079538 -1.701383e-02
-0.079413 -1.703384e-02
-0.079288 -1.705270e-02
-0.079163 -1.707041e-02
-0.079038 -1.708696e-02
-0.078913 -1.710236e-02
-0.078788 -1.711660e-02
-0.078663 -1.712969e-02
-0.078538 -1.714162e-02
-0.078413 -1.715240e-02
-0.078288 -1.716202e-02
-0.078163 -1.717049e-02
-0.078038 -1.717780e-02
-0.077913 -1.718396e-02
-0.077788 -1.718897e-02
-0.077663 -1.719282e-02
-0.077538 -1.719552e-02
-0.077413 -1.719707e-02
-0.077288 -1.719748e-02
-0.077163 -1.719673e-02
-0.077038 -1.719484e-02
-0.076913 -1.719181e-02
-0.076788 -1.718764e-02
-0.076663 -1.718233e-02
-0.076538 -1.717588e-02
-0.076413 -1.716830e-02
-0.076288 -1.715959e-02
-0.076163 -1.714975e-02
-0.076038 -1.713878e-02
-0.075913 -1.712669e-02
-0.075788 -1.711349e-02
-0.075663 -1.709917e-02
-0.075538 -1.708373e-02
-0.075413 -1.706719e-02
-0.075288 -1.704955e-02
-0.075163 -1.703081e-02
-0.075038 -1.701097e-02
-0.074913 -1.699004e-02
-0.074788 -1.696802e-02
-0.074663 -1.694493e-02
-0.074538 -1.692075e-02
-0.074413 -1.689551e-02
-0.074288 -1.686919e-02
-0.074163 -1.684182e-02
-0.074038 -1.681339e-02
-0.073913 -1.678390e-02
-0.073788 -1.675337e-02
-0.073663 -1.672180e-02
-0.073538 -1.668920e-02
-0.073413 -1.665557e-02
-0.073288 -1.662091e-02
-0.073163 -1.658524e-02
-0.073038 -1.654856e-02
-0.072913 -1.651087e-02
-0.072788 -1.647219e-02
-0.072663 -1.643251e-02
-0.072538 -1.639185e-02
-0.072413 -1.635021e-02
-0.072288 -1.630760e-02
-0.072163 -1.626403e-02
-0.072038 -1.621949e-02
-0.071913 -1.617401e-02
-0.071788 -1.612758e-02
-0.071663 -1.608021e-02
-0.071538 -1.603191e-02
-0.071413 -1.598269e-02
-0.071288 -1.593255e-02
-0.071163 -1.588151e-02
-0.071038 -1.582956e-02
-0.070913 -1.577672e-02
-0.070788 -1.572299e-02
-0.070663 -1.566838e-02
-0.070538 -1.561289e-02
-0.070413 -1.555655e-02
-0.070288 -1.549934e-02
-0.070163 -1.544129e-02
-0.070038 -1.538239e-02
-0.069913 -1.532265e-02
-0.069788 -1.526209e-02
-0.069663 -1.520071e-02
-0.069538 -1.513851e-02
-0.069413 -1.507551e-02
-0.069288 -1.501171e-02
-0.069163 -1.494712e-02
-0.069038 -1.488174e-02
-0.068913 -1.481559e-02
-0.068788 -1.474867e-02
-0.068663 -1.468099e-02
-0.068538 -1.461255e-02
-0.068413 -1.454337e-02
-0.068288 -1.447344e-02
-0.068163 -1.440278e-02
-0.068038 -1.433140e-02
-0.067913 -1.425929e-02
-0.067788 -1.418648e-02
-0.067663 -1.411295e-02
-0.067538 -1.403873e-02
-0.067413 -1.396382e-02
-0.067288 -1.388822e-02
-0.067163 -1.381194e-02
-0.067038 -1.373499e-02
-0.066913 -1.365738e-02
-0.066788 -1.357910e-02
-0.066663 -1.350017e-02
-0.066538 -1.342059e-02
-0.066413 -1.334037e-02
-0.066288 -1.325952e-02
-0.066163 -1.317803e-02
-0.066038 -1.309592e-02
-0.065913 -1.301320e-02
-0.065788 -1.292986e-02
-0.065663 -1.284591e-02
-0.065538 -1.276135e-02
-0.065413 -1.267621e-02
-0.065288 -1.259046e-02
-0.065163 -1.250413e-02
-0.065038 -1.241722e-02
-0.064913 -1.232973e-02
-0.064788 -1.224166e-02
-0.064663 -1.215303e-02
-0.064538 -1.206383e-02
-0.064413 -1.197407e-02
-0.064288 -1.188375e-02
-0.064163 -1.179287e-02
-0.064038 -1.170145e-02
-0.063913 -1.160948e-02
-0.063788 -1.151697e-02
-0.063663 -1.142391e-02
-0.063538 -1.133032e-02
-0.063413 -1.123620e-02
-0.063288 -1.114154e-02
-0.063163 -1.104635e-02
-0.063038 -1.095064e-02
-0.062913 -1.085441e-02
-0.062788 -1.075765e-02
-0.062663 -1.066037e-02
-0.062538 -1.056258e-02
-0.062413 -1.046427e-02
-0.062288 -1.036544e-02
-0.062163 -1.026610e-02
-0.062038 -1.016625e-02
-0.061913 -1.006589e-02
-0.061788 -9.965012e-03
-0.061663 -9.863631e-03
-0.061538 -9.761740e-03
-0.061413 -9.659342e-03
-0.061288 -9.556437e-03
-0.061163 -9.453024e-03
-0.061038 -9.349104e-03
-0.060913 -9.244677e-03
-0.060788 -9.139742e-03
-0.060663 -9.034301e-03
-0.060538 -8.928351e-03
-0.060413 -8.821893e-03
-0.060288 -8.714926e-03
-0.060163 -8.607448e-03
-0.060038 -8.499460e-03
-0.059913 -8.390961e-03
-0.059788 -8.281948e-03
-0.059663 -8.172421e-03
-0.059538 -8.062379e-03
-0.059413 -7.951819e-03
-0.059288 -7.840742e-03
-0.059163 -7.729143e-03
-0.059038 -7.617023e-03
-0.058913 -7.504380e-03
-0.058788 -7.391210e-03
-0.058663 -7.277513e-03
-0.058538 -7.163286e-03
-0.058413 -7.048528e-03
-0.058288 -6.933235e-03
-0.058163 -6.817405e-03
-0.058038 -6.701037e-03
-0.057913 -6.584128e-03
-0.057788 -6.466675e-03
-0.057663 -6.348676e-03
-0.057538 -6.230128e-03
-0.057413 -6.111029e-03
-0.057288 -5.991376e-03
-0.057163 -5.871167e-03
-0.057038 -5.750399e-03
-0.056913 -5.629069e-03
-0.056788 -5.507174e-03
-0.056663 -5.384713e-03
-0.056538 -5.261681e-03
-0.056413 -5.138077e-03
-0.056288 -5.013898e-03
-0.056163 -4.889141e-03
-0.056038 -4.763804e-03
-0.055913 -4.637884e-03
-0.055788 -4.511379e-03
-0.055663 -4.384286e-03
-0.055538 -4.256602e-03
-0.055413 -4.128326e-03
-0.055288 -3.999454e-03
-0.055163 -3.869985e-03
-0.055038 -3.739917e-03
-0.054913 -3.609247e-03
-0.054788 -3.477974e-03
-0.054663 -3.346095e-03
-0.054538 -3.213608e-03
-0.054413 -3.080513e-03
-0.054288 -2.946807e-03
-0.054163 -2.812489e-03
-0.054038 -2.677558e-03
-0.053913 -2.542012e-03
-0.053788 -2.405850e-03
-0.053663 -2.269071e-03
-0.053538 -2.131675e-03
-0.053413 -1.993661e-03
-0.053288 -1.855029e-03
-0.053163 -1.715778e-03
-0.053038 -1.575907e-03
-0.052913 -1.435418e-03
-0.052788 -1.294311e-03
-0.052663 -1.152585e-03
-0.052538 -1.010241e-03
-0.052413 -8.672815e-04
-0.052288 -7.237060e-04
-0.052163 -5.795163e-04
-0.052038 -4.347138e-04
-0.051913 -2.893003e-04
-0.051788 -1.432778e-04
-0.051663 3.351493e-06
-0.051538 1.505851e-04
-0.051413 2.984204e-04
-0.051288 4.468543e-04
-0.051163 5.958836e-04
-0.051038 7.455047e-04
-0.050913 8.957140e-04
-0.050788 1.046507e-03
-0.050663 1.197880e-03
-0.050538 1.349829e-03
-0.050413 1.502347e-03
-0.050288 1.655430e-03
-0.050163 1.809073e-03
-0.050038 1.963269e-03
-0.049913 2.118013e-03
-0.049788 2.273298e-03
-0.049663 2.429117e-03
-0.049538 2.585464e-03
-0.049413 2.742331e-03
-0.049288 2.899709e-03
-0.049163 3.057592e-03
-0.049038 3.215971e-03
-0.048913 3.374836e-03
-0.048788 3.534180e-03
-0.048663 3.693992e-03
-0.048538 3.854263e-03
-0.048413 4.014983e-03
-0.048288 4.176142e-03
-0.048163 4.337728e-03
-0.048038 4.499731e-03
-0.047913 4.662139e-03
-0.047788 4.824940e-03
-0.047663 4.988122e-03
-0.047538 5.151673e-03
-0.047413 5.315580e-03
-0.047288 5.479830e-03
-0.047163 5.644408e-03
-0.047038 5.809302e-03
-0.046913 5.974496e-03
-0.046788 6.139977e-03
-0.046663 6.305729e-03
-0.046538 6.471737e-03
-0.046413 6.637985e-03
-0.046288 6.804457e-03
-0.046163 6.971137e-03
-0.046038 7.138009e-03
-0.045913 7.305054e-03
-0.045788 7.472256e-03
-0.045663 7.639598e-03
-0.045538 7.807060e-03
-0.045413 7.974624e-03
-0.045288 8.142273e-03
-0.045163 8.309986e-03
-0.045038 8.477744e-03
-0.044913 8.645528e-03
-0.044788 8.813318e-03
-0.044663 8.981093e-03
-0.044538 9.148832e-03
-0.044413 9.316516e-03
-0.044288 9.484122e-03
-0.044163 9.651628e-03
-0.044038 9.819014e-03
-0.043913 9.986257e-03
-0.043788 1.015333e-02
-0.043663 1.032022e-02
-0.043538 1.048690e-02
-0.043413 1.065335e-02
-0.043288 1.081953e-02
-0.043163 1.098544e-02
-0.043038 1.115104e-02
-0.042913 1.131631e-02
-0.042788 1.148123e-02
-0.042663 1.164577e-02
-0.042538 1.180991e-02
-0.042413 1.197362e-02
-0.042288 1.213687e-02
-0.042163 1.229965e-02
-0.042038 1.246192e-02
-0.041913 1.262366e-02
-0.041788 1.278485e-02
-0.041663 1.294546e-02
-0.041538 1.310545e-02
-0.041413 1.326482e-02
-0.041288 1.342352e-02
-0.041163 1.358153e-02
-0.041038 1.373883e-02
-0.040913 1.389539e-02
-0.040788 1.405118e-02
-0.040663 1.420618e-02
-0.040538 1.436035e-02
-0.040413 1.451368e-02
-0.040288 1.466613e-02
-0.040163 1.481768e-02
-0.040038 1.496829e-02
-0.039913 1.511795e-02
-0.039788 1.526662e-02
-0.039663 1.541429e-02
-0.039538 1.556091e-02
-0.039413 1.570646e-02
-0.039288 1.585093e-02
-0.039163 1.599427e-02
-0.039038 1.613646e-02
-0.038913 1.627748e-02
-0.038788 1.641730e-02
-0.038663 1.655588e-02
-0.038538 1.669322e-02
-0.038413 1.682927e-02
-0.038288 1.696401e-02
-0.038163 1.709742e-02
-0.038038 1.722947e-02
-0.037913 1.736013e-02
-0.037788 1.748937e-02
-0.037663 1.761718e-02
-0.037538 1.774353e-02
-0.037413 1.786838e-02
-0.037288 1.799172e-02
-0.037163 1.811352e-02
-0.037038 1.823376e-02
-0.036913 1.835241e-02
-0.036788 1.846945e-02
-0.036663 1.858485e-02
-0.036538 1.869859e-02
-0.036413 1.881065e-02
-0.036288 1.892100e-02
-0.036163 1.902962e-02
-0.036038 1.913650e-02
-0.035913 1.924160e-02
-0.035788 1.934490e-02
-0.035663 1.944639e-02
-0.035538 1.954604e-02
-0.035413 1.964384e-02
-0.035288 1.973975e-02
-0.035163 1.983377e-02
-0.035038 1.992588e-02
-0.034913 2.001604e-02
-0.034788 2.010425e-02
-0.034663 2.019050e-02
-0.034538 2.027475e-02
-0.034413 2.035699e-02
-0.034288 2.043721e-02
-0.034163 2.051539e-02
-0.034038 2.059151e-02
-0.033913 2.066556e-02
-0.033788 2.073753e-02
-0.033663 2.080739e-02
-0.033538 2.087515e-02
-0.033413 2.094077e-02
-0.033288 2.100426e-02
-0.033163 2.106559e-02
-0.033038 2.112476e-02
-0.032913 2.118175e-02
-0.032788 2.123656e-02
-0.032663 2.128917e-02
-0.032538 2.133958e-02
-0.032413 2.138777e-02
-0.032288 2.143374e-02
-0.032163 2.147749e-02
-0.032038 2.151899e-02
-0.031913 2.155825e-02
-0.031788 2.159527e-02
-0.031663 2.163002e-02
-0.031538 2.166252e-02
-0.031413 2.169276e-02
-0.031288 2.172073e-02
-0.031163 2.174643e-02
-0.031038 2.176986e-02
-0.030913 2.179102e-02
-0.030788 2.180990e-02
-0.030663 2.182650e-02
-0.030538 2.184084e-02
-0.030413 2.185290e-02
-0.030288 2.186268e-02
-0.030163 2.187020e-02
-0.030038 2.187545e-02
-0.029913 2.187844e-02
-0.029788 2.187917e-02
-0.029663 2.187765e-02
-0.029538 2.187387e-02
-0.029413 2.186786e-02
-0.029288 2.185961e-02
-0.029163 2.184912e-02
-0.029038 2.183642e-02
-0.028913 2.182151e-02
-0.028788 2.180439e-02
-0.028663 2.178508e-02
-0.028538 2.176359e-02
-0.028413 2.173992e-02
-0.028288 2.171410e-02
-0.028163 2.168613e-02
-0.028038 2.165602e-02
-0.027913 2.162379e-02
-0.027788 2.158946e-02
-0.027663 2.155303e-02
-0.027538 2.151452e-02
-0.027413 2.147395e-02
-0.027288 2.143134e-02
-0.027163 2.138670e-02
-0.027038 2.134005e-02
-0.026913 2.129141e-02
-0.026788 2.124080e-02
-0.026663 2.118823e-02
-0.026538 2.113373e-02
-0.026413 2.107731e-02
-0.026288 2.101900e-02
-0.026163 2.095882e-02
-0.026038 2.089679e-02
-0.025913 2.083293e-02
-0.025788 2.076726e-02
-0.025663 2.069982e-02
-0.025538 2.063062e-02
-0.025413 2.055968e-02
-0.025288 2.048704e-02
-0.025163 2.041271e-02
-0.025038 2.033673e-02
-0.024913 2.025911e-02
-0.024788 2.017989e-02
-0.024663 2.009909e-02
-0.024538 2.001673e-02
-0.024413 1.993286e-02
-0.024288 1.984749e-02
-0.024163 1.976065e-02
-0.024038 1.967237e-02
-0.023913 1.958268e-02
-0.023788 1.949161e-02
-0.023663 1.939919e-02
-0.023538 1.930545e-02
-0.023413 1.921042e-02
-0.023288 1.911412e-02
-0.023163 1.901660e-02
-0.023038 1.891787e-02
-0.022913 1.881798e-02
-0.022788 1.871695e-02
-0.022663 1.861481e-02
-0.022538 1.851160e-02
-0.022413 1.840734e-02
-0.022288 1.830208e-02
-0.022163 1.819583e-02
-0.022038 1.808864e-02
-0.021913 1.798054e-02
-0.021788 1.787155e-02
-0.021663 1.776172e-02
-0.021538 1.765107e-02
-0.021413 1.753963e-02
-0.021288 1.742744e-02
-0.021163 1.731453e-02
-0.021038 1.720094e-02
-0.020913 1.708669e-02
-0.020788 1.697182e-02
-0.020663 1.685636e-02
-0.020538 1.674034e-02
-0.020413 1.662380e-02
-0.020288 1.650677e-02
-0.020163 1.638928e-02
-0.020038 1.627136e-02
-0.019913 1.615304e-02
-0.019788 1.603436e-02
-0.019663 1.591535e-02
-0.019538 1.579604e-02
-0.019413 1.567645e-02
-0.019288 1.555663e-02
-0.019163 1.543660e-02
-0.019038 1.531639e-02
-0.018913 1.519603e-02
-0.018788 1.507556e-02
-0.018663 1.495500e-02
-0.018538 1.483438e-02
-0.018413 1.471373e-02
-0.018288 1.459308e-02
-0.018163 1.447246e-02
-0.018038 1.435189e-02
-0.017913 1.423141e-02
-0.017788 1.411104e-02
-0.017663 1.399081e-02
-0.017538 1.387074e-02
-0.017413 1.375087e-02
-0.017288 1.363121e-02
-0.017163 1.351179e-02
-0.017038 1.339264e-02
-0.016913 1.327378e-02
-0.016788 1.315524e-02
-0.016663 1.303703e-02
-0.016538 1.291919e-02
-0.016413 1.280172e-02
-0.016288 1.268467e-02
-0.016163 1.256804e-02
-0.016038 1.245186e-02
-0.015913 1.233614e-02
-0.015788 1.222092e-02
-0.015663 1.210619e-02
-0.015538 1.199200e-02
-0.015413 1.187835e-02
-0.015288 1.176525e-02
-0.015163 1.165274e-02
-0.015038 1.154081e-02
-0.014913 1.142950e-02
-0.014788 1.131880e-02
-0.014663 1.120875e-02
-0.014538 1.109934e-02
-0.014413 1.099060e-02
-0.014288 1.088253e-02
-0.014163 1.077516e-02
-0.014038 1.066848e-02
-0.013913 1.056250e-02
-0.013788 1.045725e-02
-0.013663 1.035272e-02
-0.013538 1.024892e-02
-0.013413 1.014587e-02
-0.013288 1.004357e-02
-0.013163 9.942020e-03
-0.013038 9.841231e-03
-0.012913 9.741206e-03
-0.012788 9.641950e-03
-0.012663 9.543465e-03
-0.012538 9.445754e-03
-0.012413 9.348819e-03
-0.012288 9.252661e-03
-0.012163 9.157280e-03
-0.012038 9.062675e-03
-0.011913 8.968845e-03
-0.011788 8.875790e-03
-0.011663 8.783505e-03
-0.011538 8.691987e-03
-0.011413 8.601233e-03
-0.011288 8.511239e-03
-0.011163 8.421997e-03
-0.011038 8.333503e-03
-0.010913 8.245749e-03
-0.010788 8.158729e-03
-0.010663 8.072433e-03
-0.010538 7.986852e-03
-0.010413 7.901978e-03
-0.010288 7.817800e-03
-0.010163 7.734306e-03
-0.010038 7.651486e-03
-0.009913 7.569326e-03
-0.009788 7.487815e-03
-0.009663 7.406937e-03
-0.009538 7.326680e-03
-0.009413 7.247028e-03
-0.009288 7.167965e-03
-0.009163 7.089475e-03
-0.009038 7.011542e-03
-0.008913 6.934149e-03
-0.008788 6.857276e-03
-0.008663 6.780906e-03
-0.008538 6.705020e-03
-0.008413 6.629597e-03
-0.008288 6.554618e-03
-0.008163 6.480062e-03
-0.008038 6.405907e-03
-0.007913 6.332131e-03
-0.007788 6.258713e-03
-0.007663 6.185629e-03
-0.007538 6.112856e-03
-0.007413 6.040369e-03
-0.007288 5.968145e-03
-0.007163 5.896160e-03
-0.007038 5.824387e-03
-0.006913 5.752801e-03
-0.006788 5.681376e-03
-0.006663 5.610086e-03
-0.006538 5.538903e-03
-0.006413 5.467802e-03
-0.006288 5.396753e-03
-0.006163 5.325730e-03
-0.006038 5.254704e-03
-0.005913 5.183646e-03
-0.005788 5.112528e-03
-0.005663 5.041321e-03
-0.005538 4.969995e-03
-0.005413 4.898521e-03
-0.005288 4.826869e-03
-0.005163 4.755010e-03
-0.005038 4.682912e-03
-0.004913 4.610545e-03
-0.004788 4.537880e-03
-0.004663 4.464884e-03
-0.004538 4.391528e-03
-0.004413 4.317781e-03
-0.004288 4.243610e-03
-0.004163 4.168987e-03
-0.004038 4.093878e-03
-0.003913 4.018254e-03
-0.003788 3.942082e-03
-0.003663 3.865332e-03
-0.003538 3.787972e-03
-0.003413 3.709972e-03
-0.003288 3.631299e-03
-0.003163 3.551924e-03
-0.003038 3.471814e-03
-0.002913 3.390940e-03
-0.002788 3.309270e-03
-0.002663 3.226774e-03
-0.002538 3.143421e-03
-0.002413 3.059181e-03
-0.002288 2.974025e-03
-0.002163 2.887921e-03
-0.002038 2.800840e-03
-0.001913 2.712754e-03
-0.001788 2.623632e-03
-0.001663 2.533447e-03
-0.001538 2.442168e-03
-0.001413 2.349769e-03
-0.001288 2.256221e-03
-0.001163 2.161497e-03
-0.001038 2.065569e-03
-0.000913 1.968411e-03
-0.000788 1.869996e-03
-0.000663 1.770298e-03
-0.000538 1.669292e-03
-0.000413 1.566953e-03
-0.000288 1.463255e-03
-0.000163 1.358176e-03
-0.000038 1.251690e-03
0.000087 1.143776e-03
0.000212 1.034410e-03
0.000337 9.235699e-04
0.000462 8.112352e-04
0.000587 6.973844e-04
0.000712 5.819973e-04
0.000837 4.650542e-04
0.000962 3.465361e-04
0.001087 2.264244e-04
0.001212 1.047014e-04
0.001337 -1.865010e-05
0.001462 -1.436464e-04
0.001587 -2.703034e-04
0.001712 -3.986361e-04
0.001837 -5.286588e-04
0.001962 -6.603850e-04
0.002087 -7.938278e-04
0.002212 -9.289992e-04
0.002337 -1.065910e-03
0.002462 -1.204572e-03
0.002587 -1.344994e-03
0.002712 -1.487186e-03
0.002837 -1.631154e-03
0.002962 -1.776908e-03
0.003087 -1.924453e-03
0.003212 -2.073795e-03
0.003337 -2.224939e-03
0.003462 -2.377888e-03
0.003587 -2.532647e-03
0.003712 -2.689217e-03
0.003837 -2.847599e-03
0.003962 -3.007795e-03
0.004087 -3.169804e-03
0.004212 -3.333624e-03
0.004337 -3.499253e-03
0.004462 -3.666689e-03
0.004587 -3.835926e-03
0.004712 -4.006962e-03
0.004837 -4.179788e-03
0.004962 -4.354400e-03
0.005087 -4.530788e-03
0.005212 -4.708945e-03
0.005337 -4.888861e-03
0.005462 -5.070525e-03
0.005587 -5.253926e-03
0.005712 -5.439051e-03
0.005837 -5.625888e-03
0.005962 -5.814421e-03
0.006087 -6.004637e-03
0.006212 -6.196517e-03
0.006337 -6.390047e-03
0.006462 -6.585207e-03
0.006587 -6.781978e-03
0.006712 -6.980341e-03
0.006837 -7.180275e-03
0.006962 -7.381758e-03
0.007087 -7.584767e-03
0.007212 -7.789279e-03
0.007337 -7.995269e-03
0.007462 -8.202711e-03
0.007587 -8.411580e-03
0.007712 -8.621848e-03
0.007837 -8.833487e-03
0.007962 -9.046467e-03
0.008087 -9.260759e-03
0.008212 -9.476332e-03
0.008337 -9.693154e-03
0.008462 -9.911192e-03
0.008587 -1.013041e-02
0.008712 -1.035078e-02
0.008837 -1.057227e-02
0.008962 -1.079483e-02
0.009087 -1.101843e-02
0.009212 -1.124304e-02
0.009337 -1.146861e-02
0.009462 -1.169510e-02
0.009587 -1.192248e-02
0.009712 -1.215071e-02
0.009837 -1.237974e-02
0.009962 -1.260953e-02
0.010087 -1.284004e-02
0.010212 -1.307122e-02
0.010337 -1.330303e-02
0.010462 -1.353542e-02
0.010587 -1.376836e-02
0.010712 -1.400178e-02
0.010837 -1.423566e-02
0.010962 -1.446992e-02
0.011087 -1.470454e-02
0.011212 -1.493946e-02
0.011337 -1.517463e-02
0.011462 -1.540999e-02
0.011587 -1.564551e-02
0.011712 -1.588112e-02
0.011837 -1.611679e-02
0.011962 -1.635244e-02
0.012087 -1.658804e-02
0.012212 -1.682352e-02
0.012337 -1.705884e-02
0.012462 -1.729393e-02
0.012587 -1.752876e-02
0.012712 -1.776325e-02
0.012837 -1.799736e-02
0.012962 -1.823102e-02
0.013087 -1.846419e-02
0.013212 -1.869681e-02
0.013337 -1.892882e-02
0.013462 -1.916016e-02
0.013587 -1.939077e-02
0.013712 -1.962061e-02
0.013837 -1.984960e-02
0.013962 -2.007770e-02
0.014087 -2.030484e-02
0.014212 -2.053097e-02
0.014337 -2.075603e-02
0.014462 -2.097995e-02
0.014587 -2.120269e-02
0.014712 -2.142418e-02
0.014837 -2.164436e-02
0.014962 -2.186318e-02
0.015087 -2.208057e-02
0.015212 -2.229648e-02
0.015337 -2.251085e-02
0.015462 -2.272362e-02
0.015587 -2.293473e-02
0.015712 -2.314413e-02
0.015837 -2.335174e-02
0.015962 -2.355753e-02
0.016087 -2.376142e-02
0.016212 -2.396336e-02
0.016337 -2.416329e-02
0.016462 -2.436116e-02
0.016587 -2.455691e-02
0.016712 -2.475048e-02
0.016837 -2.494181e-02
0.016962 -2.513085e-02
0.017087 -2.531754e-02
0.017212 -2.550183e-02
0.017337 -2.568365e-02
0.017462 -2.586297e-02
0.017587 -2.603971e-02
0.017712 -2.621384e-02
0.017837 -2.638529e-02
0.017962 -2.655400e-02
0.018087 -2.671994e-02
0.018212 -2.688304e-02
0.018337 -2.704326e-02
0.018462 -2.720054e-02
0.018587 -2.735484e-02
0.018712 -2.750610e-02
0.018837 -2.765427e-02
0.018962 -2.779931e-02
0.019087 -2.794117e-02
0.019212 -2.807980e-02
0.019337 -2.821516e-02
0.019462 -2.834720e-02
0.019587 -2.847587e-02
0.019712 -2.860113e-02
0.019837 -2.872293e-02
0.019962 -2.884124e-02
0.020087 -2.895602e-02
0.020212 -2.906721e-02
0.020337 -2.917479e-02
0.020462 -2.927871e-02
0.020587 -2.937893e-02
0.020712 -2.947542e-02
0.020837 -2.956813e-02
0.020962 -2.965704e-02
0.021087 -2.974211e-02
0.021212 -2.982331e-02
0.021337 -2.990060e-02
0.021462 -2.997395e-02
0.021587 -3.004332e-02
0.021712 -3.010870e-02
0.021837 -3.017005e-02
0.021962 -3.022734e-02
0.022087 -3.028055e-02
0.022212 -3.032965e-02
0.022337 -3.037462e-02
0.022462 -3.041543e-02
0.022587 -3.045205e-02
0.022712 -3.048448e-02
0.022837 -3.051269e-02
0.022962 -3.053666e-02
0.023087 -3.055636e-02
0.023212 -3.057180e-02
0.023337 -3.058294e-02
0.023462 -3.058978e-02
0.023587 -3.059230e-02
0.023712 -3.059048e-02
0.023837 -3.058433e-02
0.023962 -3.057382e-02
0.024087 -3.055896e-02
0.024212 -3.053972e-02
0.024337 -3.051612e-02
0.024462 -3.048813e-02
0.024587 -3.045576e-02
0.024712 -3.041901e-02
0.024837 -3.037786e-02
0.024962 -3.033234e-02
0.025087 -3.028242e-02
0.025212 -3.022812e-02
0.025337 -3.016945e-02
0.025462 -3.010639e-02
0.025587 -3.003897e-02
0.025712 -2.996719e-02
0.025837 -2.989105e-02
0.025962 -2.981057e-02
0.026087 -2.972575e-02
0.026212 -2.963661e-02
0.026337 -2.954317e-02
0.026462 -2.944543e-02
0.026587 -2.934342e-02
0.026712 -2.923714e-02
0.026837 -2.912662e-02
0.026962 -2.901188e-02
0.027087 -2.889294e-02
0.027212 -2.876981e-02
0.027337 -2.864253e-02
0.027462 -2.851111e-02
0.027587 -2.837559e-02
0.027712 -2.823599e-02
0.027837 -2.809233e-02
0.027962 -2.794464e-02
0.028087 -2.779296e-02
0.028212 -2.763732e-02
0.028337 -2.747774e-02
0.028462 -2.731427e-02
0.028587 -2.714693e-02
0.028712 -2.697576e-02
0.028837 -2.680080e-02
0.028962 -2.662209e-02
0.029087 -2.643966e-02
0.029212 -2.625355e-02
0.029337 -2.606381e-02
0.029462 -2.587048e-02
0.029587 -2.567360e-02
0.029712 -2.547321e-02
0.029837 -2.526936e-02
0.029962 -2.506210e-02
0.030087 -2.485147e-02
0.030212 -2.463752e-02
0.030337 -2.442029e-02
0.030462 -2.419985e-02
0.030587 -2.397623e-02
0.030712 -2.374950e-02
0.030837 -2.351969e-02
0.030962 -2.328687e-02
0.031087 -2.305110e-02
0.031212 -2.281241e-02
0.031337 -2.257088e-02
0.031462 -2.232655e-02
0.031587 -2.207949e-02
0.031712 -2.182974e-02
0.031837 -2.157738e-02
0.031962 -2.132246e-02
0.032087 -2.106504e-02
0.032212 -2.080518e-02
0.032337 -2.054294e-02
0.032462 -2.027838e-02
0.032587 -2.001157e-02
0.032712 -1.974257e-02
0.032837 -1.947144e-02
0.032962 -1.919826e-02
0.033087 -1.892307e-02
0.033212 -1.864595e-02
0.033337 -1.836696e-02
0.033462 -1.808618e-02
0.033587 -1.780366e-02
0.033712 -1.751947e-02
0.033837 -1.723368e-02
0.033962 -1.694637e-02
0.034087 -1.665759e-02
0.034212 -1.636742e-02
0.034337 -1.607592e-02
0.034462 -1.578316e-02
0.034587 -1.548922e-02
0.034712 -1.519416e-02
0.034837 -1.489805e-02
0.034962 -1.460097e-02
0.035087 -1.430298e-02
0.035212 -1.400415e-02
0.035337 -1.370456e-02
0.035462 -1.340427e-02
0.035587 -1.310335e-02
0.035712 -1.280188e-02
0.035837 -1.249993e-02
0.035962 -1.219756e-02
0.036087 -1.189485e-02
0.036212 -1.159187e-02
0.036337 -1.128868e-02
0.036462 -1.098537e-02
0.036587 -1.068200e-02
0.036712 -1.037863e-02
0.036837 -1.007535e-02
0.036962 -9.772212e-03
0.037087 -9.469296e-03
0.037212 -9.166669e-03
0.037337 -8.864400e-03
0.037462 -8.562558e-03
0.037587 -8.261211e-03
0.037712 -7.960428e-03
0.037837 -7.660276e-03
0.037962 -7.360824e-03
0.038087 -7.062138e-03
0.038212 -6.764285e-03
0.038337 -6.467331e-03
0.038462 -6.171343e-03
0.038587 -5.876386e-03
0.038712 -5.582524e-03
0.038837 -5.289821e-03
0.038962 -4.998343e-03
0.039087 -4.708152e-03
0.039212 -4.419310e-03
0.039337 -4.131880e-03
0.039462 -3.845924e-03
0.039587 -3.561501e-03
0.039712 -3.278673e-03
0.039837 -2.997498e-03
0.039962 -2.718035e-03
0.040087 -2.440343e-03
0.040212 -2.164478e-03
0.040337 -1.890498e-03
0.040462 -1.618458e-03
0.040587 -1.348412e-03
0.040712 -1.080416e-03
0.040837 -8.145221e-04
0.040962 -5.507829e-04
0.041087 -2.892501e-04
0.041212 -2.997446e-05
0.041337 2.269943e-04
0.041462 4.816071e-04
0.041587 7.338162e-04
0.041712 9.835744e-04
0.041837 1.230836e-03
0.041962 1.475555e-03
0.042087 1.717688e-03
0.042212 1.957192e-03
0.042337 2.194025e-03
0.042462 2.428145e-03
0.042587 2.659513e-03
0.042712 2.888090e-03
0.042837 3.113837e-03
0.042962 3.336718e-03
0.043087 3.556698e-03
0.043212 3.773741e-03
0.043337 3.987814e-03
0.043462 4.198884e-03
0.043587 4.406921e-03
0.043712 4.611894e-03
0.043837 4.813775e-03
0.043962 5.012535e-03
0.044087 5.208147e-03
0.044212 5.400587e-03
0.044337 5.589829e-03
0.044462 5.775851e-03
0.044587 5.958631e-03
0.044712 6.138148e-03
0.044837 6.314383e-03
0.044962 6.487316e-03
0.045087 6.656932e-03
0.045212 6.823213e-03
0.045337 6.986146e-03
0.045462 7.145717e-03
0.045587 7.301914e-03
0.045712 7.454725e-03
0.045837 7.604141e-03
0.045962 7.750153e-03
0.046087 7.892755e-03
0.046212 8.031939e-03
0.046337 8.167701e-03
0.046462 8.300038e-03
0.046587 8.428946e-03
0.046712 8.554426e-03
0.046837 8.676476e-03
0.046962 8.795099e-03
0.047087 8.910296e-03
0.047212 9.022072e-03
0.047337 9.130431e-03
0.047462 9.235380e-03
0.047587 9.336926e-03
0.047712 9.435078e-03
0.047837 9.529845e-03
0.047962 9.621239e-03
0.048087 9.709271e-03
0.048212 9.793956e-03
0.048337 9.875307e-03
0.048462 9.953341e-03
0.048587 1.002807e-02
0.048712 1.009952e-02
0.048837 1.016771e-02
0.048962 1.023265e-02
0.049087 1.029438e-02
0.049212 1.035290e-02
0.049337 1.040825e-02
0.049462 1.046044e-02
0.049587 1.050952e-02
0.049712 1.055549e-02
0.049837 1.059840e-02
0.049962 1.063826e-02
0.050087 1.067512e-02
0.050212 1.070899e-02
0.050337 1.073992e-02
0.050462 1.076794e-02
0.050587 1.079307e-02
0.050712 1.081537e-02
0.050837 1.083485e-02
0.050962 1.085156e-02
0.051087 1.086554e-02
0.051212 1.087683e-02
0.051337 1.088546e-02
0.051462 1.089147e-02
0.051587 1.089492e-02
0.051712 1.089584e-02
0.051837 1.089427e-02
0.051962 1.089025e-02
0.052087 1.088385e-02
0.052212 1.087509e-02
0.052337 1.086402e-02
0.052462 1.085070e-02
0.052587 1.083517e-02
0.052712 1.081747e-02
0.052837 1.079767e-02
0.052962 1.077580e-02
0.053087 1.075193e-02
0.053212 1.072609e-02
0.053337 1.069835e-02
0.053462 1.066875e-02
0.053587 1.063735e-02
0.053712 1.060421e-02
0.053837 1.056937e-02
0.053962 1.053289e-02
0.054087 1.049483e-02
0.054212 1.045524e-02
0.054337 1.041417e-02
0.054462 1.037170e-02
0.054587 1.032786e-02
0.054712 1.028273e-02
0.054837 1.023635e-02
0.054962 1.018879e-02
0.055087 1.014010e-02
0.055212 1.009034e-02
0.055337 1.003958e-02
0.055462 9.987865e-03
0.055587 9.935262e-03
0.055712 9.881830e-03
0.055837 9.827629e-03
0.055962 9.772717e-03
0.056087 9.717157e-03
0.056212 9.661007e-03
0.056337 9.604329e-03
0.056462 9.547183e-03
0.056587 9.489630e-03
0.056712 9.431730e-03
0.056837 9.373544e-03
0.056962 9.315133e-03
0.057087 9.256556e-03
0.057212 9.197876e-03
0.057337 9.139152e-03
0.057462 9.080444e-03
0.057587 9.021813e-03
0.057712 8.963319e-03
0.057837 8.905022e-03
0.057962 8.846981e-03
0.058087 8.789256e-03
0.058212 8.731906e-03
0.058337 8.674990e-03
0.058462 8.618568e-03
0.058587 8.562696e-03
0.058712 8.507434e-03