-0.102788 -2.372221e-04
-0.102663 -2.389631e-04
-0.102538 -2.406872e-04
-0.102413 -2.423942e-04
-0.102288 -2.440840e-04
-0.102163 -2.457565e-04
-0.102038 -2.474116e-04
-0.101913 -2.490491e-04
-0.101788 -2.506689e-04
-0.101663 -2.522710e-04
-0.101538 -2.538552e-04
-0.101413 -2.554214e-04
-0.101288 -2.569694e-04
-0.101163 -2.584992e-04
-0.101038 -2.600107e-04
-0.100913 -2.615037e-04
-0.100788 -2.629781e-04
-0.100663 -2.644339e-04
-0.100538 -2.658709e-04
-0.100413 -2.672890e-04
-0.100288 -2.686881e-04
-0.100163 -2.700681e-04
-0.100038 -2.714289e-04
-0.099913 -2.727705e-04
-0.099788 -2.740926e-04
-0.099663 -2.753952e-04
-0.099538 -2.766783e-04
-0.099413 -2.779416e-04
-0.099288 -2.791852e-04
-0.099163 -2.804089e-04
-0.099038 -2.816126e-04
-0.098913 -2.827963e-04
-0.098788 -2.839598e-04
-0.098663 -2.851030e-04
-0.098538 -2.862260e-04
-0.098413 -2.873285e-04
-0.098288 -2.884105e-04
-0.098163 -2.894719e-04
-0.098038 -2.905127e-04
-0.097913 -2.915327e-04
-0.097788 -2.925319e-04
-0.097663 -2.935102e-04
-0.097538 -2.944675e-04
-0.097413 -2.954037e-04
-0.097288 -2.963188e-04
-0.097163 -2.972126e-04
-0.097038 -2.980852e-04
-0.096913 -2.989364e-04
-0.096788 -2.997662e-04
-0.096663 -3.005745e-04
-0.096538 -3.013612e-04
-0.096413 -3.021263e-04
-0.096288 -3.028697e-04
-0.096163 -3.035913e-04
-0.096038 -3.042911e-04
-0.095913 -3.049690e-04
-0.095788 -3.056250e-04
-0.095663 -3.062589e-04
-0.095538 -3.068708e-04
-0.095413 -3.074606e-04
-0.095288 -3.080282e-04
-0.095163 -3.085736e-04
-0.095038 -3.090968e-04
-0.094913 -3.095975e-04
-0.094788 -3.100759e-04
-0.094663 -3.105319e-04
-0.094538 -3.109655e-04
-0.094413 -3.113765e-04
-0.094288 -3.117649e-04
-0.094163 -3.121308e-04
-0.094038 -3.124740e-04
-0.093913 -3.127945e-04
-0.093788 -3.130923e-04
-0.093663 -3.133674e-04
-0.093538 -3.136197e-04
-0.093413 -3.138491e-04
-0.093288 -3.140557e-04
-0.093163 -3.142395e-04
-0.093038 -3.144003e-04
-0.092913 -3.145382e-04
-0.092788 -3.146531e-04
-0.092663 -3.147450e-04
-0.092538 -3.148139e-04
-0.092413 -3.148597e-04
-0.092288 -3.148826e-04
-0.092163 -3.148823e-04
-0.092038 -3.148589e-04
-0.091913 -3.148125e-04
-0.091788 -3.147429e-04
-0.091663 -3.146502e-04
-0.091538 -3.145343e-04
-0.091413 -3.143953e-04
-0.091288 -3.142331e-04
-0.091163 -3.140478e-04
-0.091038 -3.138393e-04
-0.090913 -3.136076e-04
-0.090788 -3.133527e-04
-0.090663 -3.130746e-04
-0.090538 -3.127733e-04
-0.090413 -3.124489e-04
-0.090288 -3.121013e-04
-0.090163 -3.117305e-04
-0.090038 -3.113366e-04
-0.089913 -3.109195e-04
-0.089788 -3.104792e-04
-0.089663 -3.100159e-04
-0.089538 -3.095294e-04
-0.089413 -3.090198e-04
-0.089288 -3.084871e-04
-0.089163 -3.079313e-04
-0.089038 -3.073525e-04
-0.088913 -3.067506e-04
-0.088788 -3.061258e-04
-0.088663 -3.054779e-04
-0.088538 -3.048071e-04
-0.088413 -3.041134e-04
-0.088288 -3.033968e-04
-0.088163 -3.026572e-04
-0.088038 -3.018949e-04
-0.087913 -3.011097e-04
-0.087788 -3.003018e-04
-0.087663 -2.994711e-04
-0.087538 -2.986177e-04
-0.087413 -2.977417e-04
-0.087288 -2.968430e-04
-0.087163 -2.959218e-04
-0.087038 -2.949780e-04
-0.086913 -2.940118e-04
-0.086788 -2.930231e-04
-0.086663 -2.920120e-04
-0.086538 -2.909786e-04
-0.086413 -2.899229e-04
-0.086288 -2.888450e-04
-0.086163 -2.877449e-04
-0.086038 -2.866226e-04
-0.085913 -2.854783e-04
-0.085788 -2.843121e-04
-0.085663 -2.831238e-04
-0.085538 -2.819137e-04
-0.085413 -2.806818e-04
-0.085288 -2.794282e-04
-0.085163 -2.781528e-04
-0.085038 -2.768559e-04
-0.084913 -2.755374e-04
-0.084788 -2.741975e-04
-0.084663 -2.728362e-04
-0.084538 -2.714535e-04
-0.084413 -2.700497e-04
-0.084288 -2.686247e-04
-0.084163 -2.671786e-04
-0.084038 -2.657115e-04
-0.083913 -2.642235e-04
-0.083788 -2.627147e-04
-0.083663 -2.611851e-04
-0.083538 -2.596350e-04
-0.083413 -2.580642e-04
-0.083288 -2.564730e-04
-0.083163 -2.548614e-04
-0.083038 -2.532296e-04
-0.082913 -2.515775e-04
-0.082788 -2.499054e-04
-0.082663 -2.482133e-04
-0.082538 -2.465013e-04
-0.082413 -2.447696e-04
-0.082288 -2.430181e-04
-0.082163 -2.412471e-04
-0.082038 -2.394566e-04
-0.081913 -2.376468e-04
-0.081788 -2.358178e-04
-0.081663 -2.339696e-04
-0.081538 -2.321024e-04
-0.081413 -2.302163e-04
-0.081288 -2.283114e-04
-0.081163 -2.263878e-04
-0.081038 -2.244457e-04
-0.080913 -2.224852e-04
-0.080788 -2.205063e-04
-0.080663 -2.185093e-04
-0.080538 -2.164942e-04
-0.080413 -2.144612e-04
-0.080288 -2.124104e-04
-0.080163 -2.103419e-04
-0.080038 -2.082559e-04
-0.079913 -2.061524e-04
-0.079788 -2.040317e-04
-0.079663 -2.018939e-04
-0.079538 -1.997390e-04
-0.079413 -1.975673e-04
-0.079288 -1.953789e-04
-0.079163 -1.931739e-04
-0.079038 -1.909524e-04
-0.078913 -1.887147e-04
-0.078788 -1.864608e-04
-0.078663 -1.841909e-04
-0.078538 -1.819052e-04
-0.078413 -1.796037e-04
-0.078288 -1.772867e-04
-0.078163 -1.749543e-04
-0.078038 -1.726066e-04
-0.077913 -1.702439e-04
-0.077788 -1.678662e-04
-0.077663 -1.654738e-04
-0.077538 -1.630667e-04
-0.077413 -1.606452e-04
-0.077288 -1.582093e-04
-0.077163 -1.557594e-04
-0.077038 -1.532955e-04
-0.076913 -1.508177e-04
-0.076788 -1.483264e-04
-0.076663 -1.458216e-04
-0.076538 -1.433034e-04
-0.076413 -1.407722e-04
-0.076288 -1.382280e-04
-0.076163 -1.356710e-04
-0.076038 -1.331014e-04
-0.075913 -1.305194e-04
-0.075788 -1.279251e-04
-0.075663 -1.253188e-04
-0.075538 -1.227006e-04
-0.075413 -1.200706e-04
-0.075288 -1.174291e-04
-0.075163 -1.147763e-04
-0.075038 -1.121123e-04
-0.074913 -1.094373e-04
-0.074788 -1.067515e-04
-0.074663 -1.040552e-04
-0.074538 -1.013484e-04
-0.074413 -9.863134e-05
-0.074288 -9.590428e-05
-0.074163 -9.316738e-05
-0.074038 -9.042082e-05
-0.073913 -8.766480e-05
-0.073788 -8.489952e-05
-0.073663 -8.212517e-05
-0.073538 -7.934195e-05
-0.073413 -7.655006e-05
-0.073288 -7.374970e-05
-0.073163 -7.094106e-05
-0.073038 -6.812435e-05
-0.072913 -6.529977e-05
-0.072788 -6.246753e-05
-0.072663 -5.962782e-05
-0.072538 -5.678086e-05
-0.072413 -5.392684e-05
-0.072288 -5.106598e-05
-0.072163 -4.819848e-05
-0.072038 -4.532455e-05
-0.071913 -4.244440e-05
-0.071788 -3.955824e-05
-0.071663 -3.666628e-05
-0.071538 -3.376873e-05
-0.071413 -3.086580e-05
-0.071288 -2.795772e-05
-0.071163 -2.504469e-05
-0.071038 -2.212692e-05
-0.070913 -1.920464e-05
-0.070788 -1.627805e-05
-0.070663 -1.334739e-05
-0.070538 -1.041285e-05
-0.070413 -7.474670e-06
-0.070288 -4.533060e-06
-0.070163 -1.588240e-06
-0.070038 1.359567e-06
-0.069913 4.310142e-06
-0.069788 7.263263e-06
-0.069663 1.021871e-05
-0.069538 1.317625e-05
-0.069413 1.613567e-05
-0.069288 1.909675e-05
-0.069163 2.205925e-05
-0.069038 2.502296e-05
-0.068913 2.798765e-05
-0.068788 3.095309e-05
-0.068663 3.391905e-05
-0.068538 3.688532e-05
-0.068413 3.985165e-05
-0.068288 4.281783e-05
-0.068163 4.578363e-05
-0.068038 4.874881e-05
-0.067913 5.171315e-05
-0.067788 5.467642e-05
-0.067663 5.763839e-05
-0.067538 6.059883e-05
-0.067413 6.355751e-05
-0.067288 6.651420e-05
-0.067163 6.946866e-05
-0.067038 7.242067e-05
-0.066913 7.537000e-05
-0.066788 7.831641e-05
-0.066663 8.125967e-05
-0.066538 8.419956e-05
-0.066413 8.713583e-05
-0.066288 9.006825e-05
-0.066163 9.299661e-05
-0.066038 9.592065e-05
-0.065913 9.884015e-05
-0.065788 1.017549e-04
-0.065663 1.046646e-04
-0.065538 1.075691e-04
-0.065413 1.104681e-04
-0.065288 1.133614e-04
-0.065163 1.162488e-04
-0.065038 1.191300e-04
-0.064913 1.220048e-04
-0.064788 1.248729e-04
-0.064663 1.277342e-04
-0.064538 1.305884e-04
-0.064413 1.334353e-04
-0.064288 1.362745e-04
-0.064163 1.391060e-04
-0.064038 1.419295e-04
-0.063913 1.447447e-04
-0.063788 1.475514e-04
-0.063663 1.503494e-04
-0.063538 1.531385e-04
-0.063413 1.559183e-04
-0.063288 1.586888e-04
-0.063163 1.614496e-04
-0.063038 1.642005e-04
-0.062913 1.669414e-04
-0.062788 1.696719e-04
-0.062663 1.723918e-04
-0.062538 1.751009e-04
-0.062413 1.777991e-04
-0.062288 1.804860e-04
-0.062163 1.831614e-04
-0.062038 1.858251e-04
-0.061913 1.884769e-04
-0.061788 1.911166e-04
-0.061663 1.937439e-04
-0.061538 1.963586e-04
-0.061413 1.989604e-04
-0.061288 2.015493e-04
-0.061163 2.041248e-04
-0.061038 2.066869e-04
-0.060913 2.092353e-04
-0.060788 2.117698e-04
-0.060663 2.142901e-04
-0.060538 2.167960e-04
-0.060413 2.192874e-04
-0.060288 2.217639e-04
-0.060163 2.242255e-04
-0.060038 2.266718e-04
-0.059913 2.291026e-04
-0.059788 2.315178e-04
-0.059663 2.339172e-04
-0.059538 2.363004e-04
-0.059413 2.386674e-04
-0.059288 2.410178e-04
-0.059163 2.433515e-04
-0.059038 2.456683e-04
-0.058913 2.479680e-04
-0.058788 2.502503e-04
-0.058663 2.525151e-04
-0.058538 2.547621e-04
-0.058413 2.569911e-04
-0.058288 2.592020e-04
-0.058163 2.613946e-04
-0.058038 2.635686e-04
-0.057913 2.657238e-04
-0.057788 2.678601e-04
-0.057663 2.699772e-04
-0.057538 2.720750e-04
-0.057413 2.741532e-04
-0.057288 2.762117e-04
-0.057163 2.782503e-04
-0.057038 2.802688e-04
-0.056913 2.822669e-04
-0.056788 2.842446e-04
-0.056663 2.862015e-04
-0.056538 2.881377e-04
-0.056413 2.900527e-04
-0.056288 2.919465e-04
-0.056163 2.938189e-04
-0.056038 2.956697e-04
-0.055913 2.974988e-04
-0.055788 2.993059e-04
-0.055663 3.010908e-04
-0.055538 3.028535e-04
-0.055413 3.045937e-04
-0.055288 3.063112e-04
-0.055163 3.080059e-04
-0.055038 3.096777e-04
-0.054913 3.113263e-04
-0.054788 3.129516e-04
-0.054663 3.145534e-04
-0.054538 3.161316e-04
-0.054413 3.176859e-04
-0.054288 3.192164e-04
-0.054163 3.207227e-04
-0.054038 3.222047e-04
-0.053913 3.236624e-04
-0.053788 3.250954e-04
-0.053663 3.265038e-04
-0.053538 3.278872e-04
-0.053413 3.292457e-04
-0.053288 3.305790e-04
-0.053163 3.318870e-04
-0.053038 3.331695e-04
-0.052913 3.344265e-04
-0.052788 3.356578e-04
-0.052663 3.368632e-04
-0.052538 3.380426e-04
-0.052413 3.391959e-04
-0.052288 3.403230e-04
-0.052163 3.414236e-04
-0.052038 3.424978e-04
-0.051913 3.435454e-04
-0.051788 3.445662e-04
-0.051663 3.455602e-04
-0.051538 3.465271e-04
-0.051413 3.474670e-04
-0.051288 3.483797e-04
-0.051163 3.492650e-04
-0.051038 3.501229e-04
-0.050913 3.509533e-04
-0.050788 3.517560e-04
-0.050663 3.525310e-04
-0.050538 3.532781e-04
-0.050413 3.539973e-04
-0.050288 3.546884e-04
-0.050163 3.553514e-04
-0.050038 3.559862e-04
-0.049913 3.565926e-04
-0.049788 3.571707e-04
-0.049663 3.577202e-04
-0.049538 3.582412e-04
-0.049413 3.587335e-04
-0.049288 3.591971e-04
-0.049163 3.596318e-04
-0.049038 3.600377e-04
-0.048913 3.604146e-04
-0.048788 3.607624e-04
-0.048663 3.610812e-04
-0.048538 3.613708e-04
-0.048413 3.616312e-04
-0.048288 3.618623e-04
-0.048163 3.620640e-04
-0.048038 3.622363e-04
-0.047913 3.623792e-04
-0.047788 3.624926e-04
-0.047663 3.625764e-04
-0.047538 3.626306e-04
-0.047413 3.626551e-04
-0.047288 3.626500e-04
-0.047163 3.626151e-04
-0.047038 3.625505e-04
-0.046913 3.624561e-04
-0.046788 3.623318e-04
-0.046663 3.621777e-04
-0.046538 3.619936e-04
-0.046413 3.617797e-04
-0.046288 3.615358e-04
-0.046163 3.612620e-04
-0.046038 3.609582e-04
-0.045913 3.606244e-04
-0.045788 3.602606e-04
-0.045663 3.598668e-04
-0.045538 3.594430e-04
-0.045413 3.589892e-04
-0.045288 3.585053e-04
-0.045163 3.579914e-04
-0.045038 3.574475e-04
-0.044913 3.568736e-04
-0.044788 3.562697e-04
-0.044663 3.556357e-04
-0.044538 3.549718e-04
-0.044413 3.542779e-04
-0.044288 3.535541e-04
-0.044163 3.528003e-04
-0.044038 3.520167e-04
-0.043913 3.512031e-04
-0.043788 3.503597e-04
-0.043663 3.494865e-04
-0.043538 3.485835e-04
-0.043413 3.476507e-04
-0.043288 3.466882e-04
-0.043163 3.456961e-04
-0.043038 3.446743e-04
-0.042913 3.436229e-04
-0.042788 3.425420e-04
-0.042663 3.414317e-04
-0.042538 3.402919e-04
-0.042413 3.391227e-04
-0.042288 3.379242e-04
-0.042163 3.366965e-04
-0.042038 3.354395e-04
-0.041913 3.341535e-04
-0.041788 3.328384e-04
-0.041663 3.314944e-04
-0.041538 3.301214e-04
-0.041413 3.287196e-04
-0.041288 3.272891e-04
-0.041163 3.258299e-04
-0.041038 3.243421e-04
-0.040913 3.228259e-04
-0.040788 3.212812e-04
-0.040663 3.197083e-04
-0.040538 3.181071e-04
-0.040413 3.164778e-04
-0.040288 3.148206e-04
-0.040163 3.131354e-04
-0.040038 3.114224e-04
-0.039913 3.096817e-04
-0.039788 3.079134e-04
-0.039663 3.061177e-04
-0.039538 3.042946e-04
-0.039413 3.024442e-04
-0.039288 3.005668e-04
-0.039163 2.986623e-04
-0.039038 2.967310e-04
-0.038913 2.947730e-04
-0.038788 2.927883e-04
-0.038663 2.907772e-04
-0.038538 2.887397e-04
-0.038413 2.866761e-04
-0.038288 2.845863e-04
-0.038163 2.824707e-04
-0.038038 2.803293e-04
-0.037913 2.781623e-04
-0.037788 2.759697e-04
-0.037663 2.737519e-04
-0.037538 2.715089e-04
-0.037413 2.692409e-04
-0.037288 2.669481e-04
-0.037163 2.646305e-04
-0.037038 2.622885e-04
-0.036913 2.599221e-04
-0.036788 2.575315e-04
-0.036663 2.551169e-04
-0.036538 2.526784e-04
-0.036413 2.502163e-04
-0.036288 2.477308e-04
-0.036163 2.452219e-04
-0.036038 2.426899e-04
-0.035913 2.401349e-04
-0.035788 2.375573e-04
-0.035663 2.349570e-04
-0.035538 2.323344e-04
-0.035413 2.296897e-04
-0.035288 2.270229e-04
-0.035163 2.243344e-04
-0.035038 2.216244e-04
-0.034913 2.188929e-04
-0.034788 2.161403e-04
-0.034663 2.133668e-04
-0.034538 2.105725e-04
-0.034413 2.077576e-04
-0.034288 2.049225e-04
-0.034163 2.020672e-04
-0.034038 1.991920e-04
-0.033913 1.962972e-04
-0.033788 1.933830e-04
-0.033663 1.904495e-04
-0.033538 1.874970e-04
-0.033413 1.845258e-04
-0.033288 1.815360e-04
-0.033163 1.785280e-04
-0.033038 1.755018e-04
-0.032913 1.724578e-04
-0.032788 1.693962e-04
-0.032663 1.663173e-04
-0.032538 1.632213e-04
-0.032413 1.601083e-04
-0.032288 1.569788e-04
-0.032163 1.538329e-04
-0.032038 1.506708e-04
-0.031913 1.474929e-04
-0.031788 1.442993e-04
-0.031663 1.410903e-04
-0.031538 1.378663e-04
-0.031413 1.346273e-04
-0.031288 1.313738e-04
-0.031163 1.281059e-04
-0.031038 1.248239e-04
-0.030913 1.215281e-04
-0.030788 1.182188e-04
-0.030663 1.148962e-04
-0.030538 1.115605e-04
-0.030413 1.082121e-04
-0.030288 1.048512e-04
-0.030163 1.014782e-04
-0.030038 9.809316e-05
-0.029913 9.469650e-05
-0.029788 9.128845e-05
-0.029663 8.786931e-05
-0.029538 8.443935e-05
-0.029413 8.099884e-05
-0.029288 7.754809e-05
-0.029163 7.408735e-05
-0.029038 7.061693e-05
-0.028913 6.713711e-05
-0.028788 6.364818e-05
-0.028663 6.015041e-05
-0.028538 5.664412e-05
-0.028413 5.312957e-05
-0.028288 4.960708e-05
-0.028163 4.607692e-05
-0.028038 4.253940e-05
-0.027913 3.899480e-05
-0.027788 3.544343e-05
-0.027663 3.188559e-05
-0.027538 2.832156e-05
-0.027413 2.475165e-05
-0.027288 2.117617e-05
-0.027163 1.759540e-05
-0.027038 1.400966e-05
-0.026913 1.041924e-05
-0.026788 6.824449e-06
-0.026663 3.225591e-06
-0.026538 -3.770284e-07
-0.026413 -3.983105e-06
-0.026288 -7.592332e-06
-0.026163 -1.120440e-05
-0.026038 -1.481901e-05
-0.025913 -1.843584e-05
-0.025788 -2.205459e-05
-0.025663 -2.567495e-05
-0.025538 -2.929660e-05
-0.025413 -3.291925e-05
-0.025288 -3.654257e-05
-0.025163 -4.016626e-05
-0.025038 -4.379000e-05
-0.024913 -4.741348e-05
-0.024788 -5.103638e-05
-0.024663 -5.465841e-05
-0.024538 -5.827923e-05
-0.024413 -6.189854e-05
-0.024288 -6.551603e-05
-0.024163 -6.913137e-05
-0.024038 -7.274426e-05
-0.023913 -7.635437e-05
-0.023788 -7.996141e-05
-0.023663 -8.356504e-05
-0.023538 -8.716496e-05
-0.023413 -9.076084e-05
-0.023288 -9.435238e-05
-0.023163 -9.793926e-05
-0.023038 -1.015212e-04
-0.022913 -1.050978e-04
-0.022788 -1.086688e-04
-0.022663 -1.122339e-04
-0.022538 -1.157927e-04
-0.022413 -1.193450e-04
-0.022288 -1.228905e-04
-0.022163 -1.264287e-04
-0.022038 -1.299595e-04
-0.021913 -1.334824e-04
-0.021788 -1.369972e-04
-0.021663 -1.405036e-04
-0.021538 -1.440013e-04
-0.021413 -1.474899e-04
-0.021288 -1.509691e-04
-0.021163 -1.544386e-04
-0.021038 -1.578982e-04
-0.020913 -1.613474e-04
-0.020788 -1.647860e-04
-0.020663 -1.682137e-04
-0.020538 -1.716302e-04
-0.020413 -1.750351e-04
-0.020288 -1.784282e-04
-0.020163 -1.818091e-04
-0.020038 -1.851775e-04
-0.019913 -1.885332e-04
-0.019788 -1.918758e-04
-0.019663 -1.952051e-04
-0.019538 -1.985206e-04
-0.019413 -2.018222e-04
-0.019288 -2.051095e-04
-0.019163 -2.083822e-04
-0.019038 -2.116400e-04
-0.018913 -2.148826e-04
-0.018788 -2.181098e-04
-0.018663 -2.213211e-04
-0.018538 -2.245164e-04
-0.018413 -2.276954e-04
-0.018288 -2.308577e-04
-0.018163 -2.340030e-04
-0.018038 -2.371311e-04
-0.017913 -2.402416e-04
-0.017788 -2.433343e-04
-0.017663 -2.464089e-04
-0.017538 -2.494651e-04
-0.017413 -2.525027e-04
-0.017288 -2.555212e-04
-0.017163 -2.585206e-04
-0.017038 -2.615004e-04
-0.016913 -2.644604e-04
-0.016788 -2.674003e-04
-0.016663 -2.703198e-04
-0.016538 -2.732187e-04
-0.016413 -2.760967e-04
-0.016288 -2.789535e-04
-0.016163 -2.817889e-04
-0.016038 -2.846025e-04
-0.015913 -2.873941e-04
-0.015788 -2.901635e-04
-0.015663 -2.929104e-04
-0.015538 -2.956345e-04
-0.015413 -2.983356e-04
-0.015288 -3.010133e-04
-0.015163 -3.036675e-04
-0.015038 -3.062979e-04
-0.014913 -3.089042e-04
-0.014788 -3.114862e-04
-0.014663 -3.140437e-04
-0.014538 -3.165763e-04
-0.014413 -3.190839e-04
-0.014288 -3.215662e-04
-0.014163 -3.240229e-04
-0.014038 -3.264539e-04
-0.013913 -3.288588e-04
-0.013788 -3.312375e-04
-0.013663 -3.335896e-04
-0.013538 -3.359151e-04
-0.013413 -3.382136e-04
-0.013288 -3.404849e-04
-0.013163 -3.427289e-04
-0.013038 -3.449452e-04
-0.012913 -3.471336e-04
-0.012788 -3.492940e-04
-0.012663 -3.514262e-04
-0.012538 -3.535298e-04
-0.012413 -3.556047e-04
-0.012288 -3.576507e-04
-0.012163 -3.596676e-04
-0.012038 -3.616552e-04
-0.011913 -3.636132e-04
-0.011788 -3.655415e-04
-0.011663 -3.674399e-04
-0.011538 -3.693082e-04
-0.011413 -3.711461e-04
-0.011288 -3.729536e-04
-0.011163 -3.747304e-04
-0.011038 -3.764763e-04
-0.010913 -3.781911e-04
-0.010788 -3.798747e-04
-0.010663 -3.815270e-04
-0.010538 -3.831476e-04
-0.010413 -3.847365e-04
-0.010288 -3.862934e-04
-0.010163 -3.878183e-04
-0.010038 -3.893109e-04
-0.009913 -3.907711e-04
-0.009788 -3.921987e-04
-0.009663 -3.935936e-04
-0.009538 -3.949556e-04
-0.009413 -3.962846e-04
-0.009288 -3.975805e-04
-0.009163 -3.988430e-04
-0.009038 -4.000720e-04
-0.008913 -4.012674e-04
-0.008788 -4.024291e-04
-0.008663 -4.035570e-04
-0.008538 -4.046508e-04
-0.008413 -4.057106e-04
-0.008288 -4.067360e-04
-0.008163 -4.077271e-04
-0.008038 -4.086838e-04
-0.007913 -4.096058e-04
-0.007788 -4.104931e-04
-0.007663 -4.113456e-04
-0.007538 -4.121631e-04
-0.007413 -4.129457e-04
-0.007288 -4.136931e-04
-0.007163 -4.144052e-04
-0.007038 -4.150821e-04
-0.006913 -4.157235e-04
-0.006788 -4.163295e-04
-0.006663 -4.168998e-04
-0.006538 -4.174345e-04
-0.006413 -4.179335e-04
-0.006288 -4.183966e-04
-0.006163 -4.188238e-04
-0.006038 -4.192151e-04
-0.005913 -4.195704e-04
-0.005788 -4.198895e-04
-0.005663 -4.201726e-04
-0.005538 -4.204194e-04
-0.005413 -4.206299e-04
-0.005288 -4.208042e-04
-0.005163 -4.209421e-04
-0.005038 -4.210436e-04
-0.004913 -4.211087e-04
-0.004788 -4.211373e-04
-0.004663 -4.211294e-04
-0.004538 -4.210850e-04
-0.004413 -4.210040e-04
-0.004288 -4.208864e-04
-0.004163 -4.207322e-04
-0.004038 -4.205414e-04
-0.003913 -4.203139e-04
-0.003788 -4.200498e-04
-0.003663 -4.197490e-04
-0.003538 -4.194116e-04
-0.003413 -4.190375e-04
-0.003288 -4.186268e-04
-0.003163 -4.181794e-04
-0.003038 -4.176954e-04
-0.002913 -4.171747e-04
-0.002788 -4.166174e-04
-0.002663 -4.160235e-04
-0.002538 -4.153931e-04
-0.002413 -4.147261e-04
-0.002288 -4.140225e-04
-0.002163 -4.132825e-04
-0.002038 -4.125061e-04
-0.001913 -4.116932e-04
-0.001788 -4.108439e-04
-0.001663 -4.099584e-04
-0.001538 -4.090365e-04
-0.001413 -4.080784e-04
-0.001288 -4.070842e-04
-0.001163 -4.060538e-04
-0.001038 -4.049874e-04
-0.000913 -4.038851e-04
-0.000788 -4.027468e-04
-0.000663 -4.015726e-04
-0.000538 -4.003627e-04
-0.000413 -3.991171e-04
-0.000288 -3.978359e-04
-0.000163 -3.965192e-04
-0.000038 -3.951671e-04
0.000087 -3.937796e-04
0.000212 -3.923568e-04
0.000337 -3.908989e-04
0.000462 -3.894060e-04
0.000587 -3.878781e-04
0.000712 -3.863154e-04
0.000837 -3.847180e-04
0.000962 -3.830860e-04
0.001087 -3.814195e-04
0.001212 -3.797186e-04
0.001337 -3.779834e-04
0.001462 -3.762142e-04
0.001587 -3.744109e-04
0.001712 -3.725738e-04
0.001837 -3.707030e-04
0.001962 -3.687986e-04
0.002087 -3.668608e-04
0.002212 -3.648897e-04
0.002337 -3.628855e-04
0.002462 -3.608482e-04
0.002587 -3.587782e-04
0.002712 -3.566754e-04
0.002837 -3.545402e-04
0.002962 -3.523726e-04
0.003087 -3.501729e-04
0.003212 -3.479411e-04
0.003337 -3.456775e-04
0.003462 -3.433823e-04
0.003587 -3.410555e-04
0.003712 -3.386975e-04
0.003837 -3.363084e-04
0.003962 -3.338884e-04
0.004087 -3.314376e-04
0.004212 -3.289563e-04
0.004337 -3.264447e-04
0.004462 -3.239030e-04
0.004587 -3.213313e-04
0.004712 -3.187299e-04
0.004837 -3.160990e-04
0.004962 -3.134388e-04
0.005087 -3.107495e-04
0.005212 -3.080314e-04
0.005337 -3.052846e-04
0.005462 -3.025093e-04
0.005587 -2.997059e-04
0.005712 -2.968745e-04
0.005837 -2.940154e-04
0.005962 -2.911288e-04
0.006087 -2.882149e-04
0.006212 -2.852740e-04
0.006337 -2.823063e-04
0.006462 -2.793121e-04
0.006587 -2.762916e-04
0.006712 -2.732450e-04
0.006837 -2.701727e-04
0.006962 -2.670748e-04
0.007087 -2.639516e-04
0.007212 -2.608034e-04
0.007337 -2.576305e-04
0.007462 -2.544331e-04
0.007587 -2.512115e-04
0.007712 -2.479659e-04
0.007837 -2.446966e-04
0.007962 -2.414039e-04
0.008087 -2.380881e-04
0.008212 -2.347495e-04
0.008337 -2.313883e-04
0.008462 -2.280048e-04
0.008587 -2.245993e-04
0.008712 -2.211721e-04
0.008837 -2.177235e-04
0.008962 -2.142537e-04
0.009087 -2.107631e-04
0.009212 -2.072520e-04
0.009337 -2.037207e-04
0.009462 -2.001694e-04
0.009587 -1.965984e-04
0.009712 -1.930082e-04
0.009837 -1.893989e-04
0.009962 -1.857709e-04
0.010087 -1.821245e-04
0.010212 -1.784600e-04
0.010337 -1.747778e-04
0.010462 -1.710781e-04
0.010587 -1.673612e-04
0.010712 -1.636275e-04
0.010837 -1.598774e-04
0.010962 -1.561110e-04
0.011087 -1.523288e-04
0.011212 -1.485311e-04
0.011337 -1.447181e-04
0.011462 -1.408904e-04
0.011587 -1.370480e-04
0.011712 -1.331915e-04
0.011837 -1.293211e-04
0.011962 -1.254372e-04
0.012087 -1.215401e-04
0.012212 -1.176301e-04
0.012337 -1.137076e-04
0.012462 -1.097729e-04
0.012587 -1.058265e-04
0.012712 -1.018685e-04
0.012837 -9.789938e-05
0.012962 -9.391948e-05
0.013087 -8.992913e-05
0.013212 -8.592869e-05
0.013337 -8.191851e-05
0.013462 -7.789894e-05
0.013587 -7.387032e-05
0.013712 -6.983302e-05
0.013837 -6.578739e-05
0.013962 -6.173379e-05
0.014087 -5.767256e-05
0.014212 -5.360408e-05
0.014337 -4.952869e-05
0.014462 -4.544676e-05
0.014587 -4.135865e-05
0.014712 -3.726472e-05
0.014837 -3.316533e-05
0.014962 -2.906085e-05
0.015087 -2.495163e-05
0.015212 -2.083804e-05
0.015337 -1.672045e-05
0.015462 -1.259921e-05
0.015587 -8.474708e-06
0.015712 -4.347295e-06
0.015837 -2.173422e-07
0.015962 3.914784e-06
0.016087 8.048716e-06
0.016212 1.218408e-05
0.016337 1.632052e-05
0.016462 2.045766e-05
0.016587 2.459513e-05
0.016712 2.873256e-05
0.016837 3.286958e-05
0.016962 3.700582e-05
0.017087 4.114092e-05
0.017212 4.527449e-05
0.017337 4.940618e-05
0.017462 5.353561e-05
0.017587 5.766241e-05
0.017712 6.178621e-05
0.017837 6.590664e-05
0.017962 7.002334e-05
0.018087 7.413592e-05
0.018212 7.824402e-05
0.018337 8.234727e-05
0.018462 8.644531e-05
0.018587 9.053775e-05
0.018712 9.462424e-05
0.018837 9.870441e-05
0.018962 1.027779e-04
0.019087 1.068443e-04
0.019212 1.109033e-04
0.019337 1.149544e-04
0.019462 1.189975e-04
0.019587 1.230319e-04
0.019712 1.270575e-04
0.019837 1.310739e-04
0.019962 1.350806e-04
0.020087 1.390773e-04
0.020212 1.430637e-04
0.020337 1.470393e-04
0.020462 1.510039e-04
0.020587 1.549571e-04
0.020712 1.588984e-04
0.020837 1.628276e-04
0.020962 1.667443e-04
0.021087 1.706481e-04
0.021212 1.745387e-04
0.021337 1.784157e-04
0.021462 1.822788e-04
0.021587 1.861276e-04
0.021712 1.899618e-04
0.021837 1.937809e-04
0.021962 1.975848e-04
0.022087 2.013729e-04
0.022212 2.051450e-04
0.022337 2.089007e-04
0.022462 2.126397e-04
0.022587 2.163616e-04
0.022712 2.200662e-04
0.022837 2.237529e-04
0.022962 2.274216e-04
0.023087 2.310718e-04
0.023212 2.347033e-04
0.023337 2.383157e-04
0.023462 2.419086e-04
0.023587 2.454818e-04
0.023712 2.490349e-04
0.023837 2.525675e-04
0.023962 2.560795e-04
0.024087 2.595703e-04
0.024212 2.630397e-04
0.024337 2.664874e-04
0.024462 2.699131e-04
0.024587 2.733165e-04
0.024712 2.766971e-04
0.024837 2.800548e-04
0.024962 2.833891e-04
0.025087 2.866999e-04
0.025212 2.899867e-04
0.025337 2.932494e-04
0.025462 2.964875e-04
0.025587 2.997007e-04
0.025712 3.028889e-04
0.025837 3.060516e-04
0.025962 3.091885e-04
0.026087 3.122995e-04
0.026212 3.153842e-04
0.026337 3.184423e-04
0.026462 3.214734e-04
0.026587 3.244775e-04
0.026712 3.274540e-04
0.026837 3.304029e-04
0.026962 3.333237e-04
0.027087 3.362163e-04
0.027212 3.390803e-04
0.027337 3.419154e-04
0.027462 3.447215e-04
0.027587 3.474983e-04
0.027712 3.502454e-04
0.027837 3.529626e-04
0.027962 3.556497e-04
0.028087 3.583064e-04
0.028212 3.609325e-04
0.028337 3.635277e-04
0.028462 3.660917e-04
0.028587 3.686244e-04
0.028712 3.711254e-04
0.028837 3.735946e-04
0.028962 3.760317e-04
0.029087 3.784364e-04
0.029212 3.808086e-04
0.029337 3.831480e-04
0.029462 3.854544e-04
0.029587 3.877275e-04
0.029712 3.899672e-04
0.029837 3.921733e-04
0.029962 3.943454e-04
0.030087 3.964835e-04
0.030212 3.985872e-04
0.030337 4.006565e-04
0.030462 4.026911e-04
0.030587 4.046907e-04
0.030712 4.066553e-04
0.030837 4.085846e-04
0.030962 4.104784e-04
0.031087 4.123366e-04
0.031212 4.141589e-04
0.031337 4.159452e-04
0.031462 4.176954e-04
0.031587 4.194091e-04
0.031712 4.210863e-04
0.031837 4.227269e-04
0.031962 4.243305e-04
0.032087 4.258972e-04
0.032212 4.274266e-04
0.032337 4.289188e-04
0.032462 4.303734e-04
0.032587 4.317904e-04
0.032712 4.331697e-04
0.032837 4.345111e-04
0.032962 4.358144e-04
0.033087 4.370795e-04
0.033212 4.383064e-04
0.033337 4.394948e-04
0.033462 4.406446e-04
0.033587 4.417558e-04
0.033712 4.428282e-04
0.033837 4.438617e-04
0.033962 4.448562e-04
0.034087 4.458116e-04
0.034212 4.467278e-04
0.034337 4.476047e-04
0.034462 4.484422e-04
0.034587 4.492402e-04
0.034712 4.499986e-04
0.034837 4.507173e-04
0.034962 4.513963e-04
0.035087 4.520355e-04
0.035212 4.526348e-04
0.035337 4.531941e-04
0.035462 4.537135e-04
0.035587 4.541927e-04
0.035712 4.546318e-04
0.035837 4.550306e-04
0.035962 4.553893e-04
0.036087 4.557076e-04
0.036212 4.559856e-04
0.036337 4.562232e-04
0.036462 4.564204e-04
0.036587 4.565771e-04
0.036712 4.566934e-04
0.036837 4.567692e-04
0.036962 4.568044e-04
0.037087 4.567991e-04
0.037212 4.567532e-04
0.037337 4.566668e-04
0.037462 4.565398e-04
0.037587 4.563722e-04
0.037712 4.561640e-04
0.037837 4.559153e-04
0.037962 4.556260e-04
0.038087 4.552961e-04
0.038212 4.549257e-04
0.038337 4.545148e-04
0.038462 4.540634e-04
0.038587 4.535715e-04
0.038712 4.530392e-04
0.038837 4.524665e-04
0.038962 4.518534e-04
0.039087 4.512000e-04
0.039212 4.505063e-04
0.039337 4.497723e-04
0.039462 4.489982e-04
0.039587 4.481840e-04
0.039712 4.473297e-04
0.039837 4.464354e-04
0.039962 4.455011e-04
0.040087 4.445270e-04
0.040212 4.435131e-04
0.040337 4.424595e-04
0.040462 4.413663e-04
0.040587 4.402335e-04
0.040712 4.390612e-04
0.040837 4.378496e-04
0.040962 4.365988e-04
0.041087 4.353087e-04
0.041212 4.339796e-04
0.041337 4.326116e-04
0.041462 4.312047e-04
0.041587 4.297590e-04
0.041712 4.282748e-04
0.041837 4.267520e-04
0.041962 4.251909e-04
0.042087 4.235915e-04
0.042212 4.219541e-04
0.042337 4.202786e-04
0.042462 4.185654e-04
0.042587 4.168144e-04
0.042712 4.150259e-04
0.042837 4.132000e-04
0.042962 4.113368e-04
0.043087 4.094365e-04
0.043212 4.074994e-04
0.043337 4.055254e-04
0.043462 4.035149e-04
0.043587 4.014679e-04
0.043712 3.993847e-04
0.043837 3.972654e-04
0.043962 3.951102e-04
0.044087 3.929193e-04
0.044212 3.906928e-04
0.044337 3.884310e-04
0.044462 3.861341e-04
0.044587 3.838022e-04
0.044712 3.814355e-04
0.044837 3.790343e-04
0.044962 3.765988e-04
0.045087 3.741291e-04
0.045212 3.716255e-04
0.045337 3.690882e-04
0.045462 3.665174e-04
0.045587 3.639134e-04
0.045712 3.612763e-04
0.045837 3.586064e-04
0.045962 3.559039e-04
0.046087 3.531691e-04
0.046212 3.504021e-04
0.046337 3.476033e-04
0.046462 3.447729e-04
0.046587 3.419111e-04
0.046712 3.390181e-04
0.046837 3.360943e-04
0.046962 3.331398e-04
0.047087 3.301550e-04
0.047212 3.271401e-04
0.047337 3.240953e-04
0.047462 3.210209e-04
0.047587 3.179173e-04
0.047712 3.147846e-04
0.047837 3.116231e-04
0.047962 3.084331e-04
0.048087 3.052150e-04
0.048212 3.019689e-04
0.048337 2.986951e-04
0.048462 2.953941e-04
0.048587 2.920659e-04
0.048712 2.887110e-04
0.048837 2.853296e-04
0.048962 2.819220e-04
0.049087 2.784886e-04
0.049212 2.750295e-04
0.049337 2.715452e-04
0.049462 2.680360e-04
0.049587 2.645020e-04
0.049712 2.609438e-04
0.049837 2.573615e-04
0.049962 2.537555e-04
0.050087 2.501261e-04
0.050212 2.464736e-04
0.050337 2.427984e-04
0.050462 2.391008e-04
0.050587 2.353810e-04
0.050712 2.316395e-04
0.050837 2.278766e-04
0.050962 2.240925e-04
0.051087 2.202877e-04
0.051212 2.164625e-04
0.051337 2.126172e-04
0.051462 2.087521e-04
0.051587 2.048676e-04
0.051712 2.009641e-04
0.051837 1.970418e-04
0.051962 1.931012e-04
0.052087 1.891425e-04
0.052212 1.851662e-04
0.052337 1.811726e-04
0.052462 1.771621e-04
0.052587 1.731349e-04
0.052712 1.690915e-04
0.052837 1.650322e-04
0.052962 1.609574e-04
0.053087 1.568675e-04
0.053212 1.527628e-04
0.053337 1.486436e-04
0.053462 1.445104e-04
0.053587 1.403635e-04
0.053712 1.362033e-04
0.053837 1.320302e-04
0.053962 1.278445e-04
0.054087 1.236465e-04
0.054212 1.194368e-04
0.054337 1.152156e-04
0.054462 1.109834e-04
0.054587 1.067404e-04
0.054712 1.024872e-04
0.054837 9.822401e-05
0.054962 9.395128e-05
0.055087 8.966939e-05
0.055212 8.537871e-05
0.055337 8.107964e-05
0.055462 7.677256e-05
0.055587 7.245784e-05
0.055712 6.813589e-05
0.055837 6.380709e-05
0.055962 5.947181e-05
0.056087 5.513047e-05
0.056212 5.078344e-05
0.056337 4.643111e-05
0.056462 4.207387e-05
0.056587 3.771212e-05
0.056712 3.334624e-05
0.056837 2.897664e-05
0.056962 2.460369e-05
0.057087 2.022780e-05
0.057212 1.584935e-05
0.057337 1.146875e-05
0.057462 7.086375e-06
0.057587 2.702630e-06
0.057712 -1.682094e-06
0.057837 -6.067402e-06
0.057962 -1.045290e-05
0.058087 -1.483819e-05
0.058212 -1.922289e-05
0.058337 -2.360659e-05
0.058462 -2.798891e-05
0.058587 -3.236944e-05
0.058712 -3.674779e-05
0.058837 -4.112358e-05
0.058962 -4.549640e-05
0.059087 -4.986586e-05
0.059212 -5.423157e-05
0.059337 -5.859314e-05