-0.102788 -4.363153e-05
-0.102663 -4.648222e-05
-0.102538 -4.932833e-05
-0.102413 -5.216963e-05
-0.102288 -5.500588e-05
-0.102163 -5.783684e-05
-0.102038 -6.066227e-05
-0.101913 -6.348192e-05
-0.101788 -6.629557e-05
-0.101663 -6.910297e-05
-0.101538 -7.190389e-05
-0.101413 -7.469810e-05
-0.101288 -7.748535e-05
-0.101163 -8.026541e-05
-0.101038 -8.303805e-05
-0.100913 -8.580303e-05
-0.100788 -8.856012e-05
-0.100663 -9.130910e-05
-0.100538 -9.404972e-05
-0.100413 -9.678175e-05
-0.100288 -9.950498e-05
-0.100163 -1.022192e-04
-0.100038 -1.049241e-04
-0.099913 -1.076195e-04
-0.099788 -1.103052e-04
-0.099663 -1.129809e-04
-0.099538 -1.156465e-04
-0.099413 -1.183016e-04
-0.099288 -1.209462e-04
-0.099163 -1.235799e-04
-0.099038 -1.262025e-04
-0.098913 -1.288138e-04
-0.098788 -1.314137e-04
-0.098663 -1.340018e-04
-0.098538 -1.365779e-04
-0.098413 -1.391420e-04
-0.098288 -1.416936e-04
-0.098163 -1.442327e-04
-0.098038 -1.467589e-04
-0.097913 -1.492722e-04
-0.097788 -1.517722e-04
-0.097663 -1.542588e-04
-0.097538 -1.567318e-04
-0.097413 -1.591909e-04
-0.097288 -1.616359e-04
-0.097163 -1.640668e-04
-0.097038 -1.664831e-04
-0.096913 -1.688848e-04
-0.096788 -1.712716e-04
-0.096663 -1.736434e-04
-0.096538 -1.759999e-04
-0.096413 -1.783410e-04
-0.096288 -1.806664e-04
-0.096163 -1.829759e-04
-0.096038 -1.852694e-04
-0.095913 -1.875467e-04
-0.095788 -1.898076e-04
-0.095663 -1.920518e-04
-0.095538 -1.942793e-04
-0.095413 -1.964898e-04
-0.095288 -1.986831e-04
-0.095163 -2.008591e-04
-0.095038 -2.030175e-04
-0.094913 -2.051582e-04
-0.094788 -2.072811e-04
-0.094663 -2.093859e-04
-0.094538 -2.114724e-04
-0.094413 -2.135406e-04
-0.094288 -2.155901e-04
-0.094163 -2.176209e-04
-0.094038 -2.196328e-04
-0.093913 -2.216256e-04
-0.093788 -2.235991e-04
-0.093663 -2.255532e-04
-0.093538 -2.274877e-04
-0.093413 -2.294025e-04
-0.093288 -2.312974e-04
-0.093163 -2.331723e-04
-0.093038 -2.350269e-04
-0.092913 -2.368611e-04
-0.092788 -2.386749e-04
-0.092663 -2.404680e-04
-0.092538 -2.422402e-04
-0.092413 -2.439916e-04
-0.092288 -2.457218e-04
-0.092163 -2.474307e-04
-0.092038 -2.491183e-04
-0.091913 -2.507843e-04
-0.091788 -2.524287e-04
-0.091663 -2.540513e-04
-0.091538 -2.556519e-04
-0.091413 -2.572305e-04
-0.091288 -2.587869e-04
-0.091163 -2.603210e-04
-0.091038 -2.618326e-04
-0.090913 -2.633216e-04
-0.090788 -2.647880e-04
-0.090663 -2.662315e-04
-0.090538 -2.676521e-04
-0.090413 -2.690497e-04
-0.090288 -2.704241e-04
-0.090163 -2.717752e-04
-0.090038 -2.731029e-04
-0.089913 -2.744072e-04
-0.089788 -2.756878e-04
-0.089663 -2.769448e-04
-0.089538 -2.781779e-04
-0.089413 -2.793871e-04
-0.089288 -2.805724e-04
-0.089163 -2.817335e-04
-0.089038 -2.828705e-04
-0.088913 -2.839831e-04
-0.088788 -2.850714e-04
-0.088663 -2.861352e-04
-0.088538 -2.871745e-04
-0.088413 -2.881891e-04
-0.088288 -2.891790e-04
-0.088163 -2.901442e-04
-0.088038 -2.910844e-04
-0.087913 -2.919998e-04
-0.087788 -2.928901e-04
-0.087663 -2.937553e-04
-0.087538 -2.945954e-04
-0.087413 -2.954102e-04
-0.087288 -2.961997e-04
-0.087163 -2.969639e-04
-0.087038 -2.977027e-04
-0.086913 -2.984160e-04
-0.086788 -2.991038e-04
-0.086663 -2.997661e-04
-0.086538 -3.004027e-04
-0.086413 -3.010136e-04
-0.086288 -3.015988e-04
-0.086163 -3.021582e-04
-0.086038 -3.026918e-04
-0.085913 -3.031995e-04
-0.085788 -3.036814e-04
-0.085663 -3.041373e-04
-0.085538 -3.045673e-04
-0.085413 -3.049713e-04
-0.085288 -3.053493e-04
-0.085163 -3.057012e-04
-0.085038 -3.060270e-04
-0.084913 -3.063268e-04
-0.084788 -3.066004e-04
-0.084663 -3.068479e-04
-0.084538 -3.070692e-04
-0.084413 -3.072644e-04
-0.084288 -3.074334e-04
-0.084163 -3.075762e-04
-0.084038 -3.076928e-04
-0.083913 -3.077832e-04
-0.083788 -3.078474e-04
-0.083663 -3.078854e-04
-0.083538 -3.078972e-04
-0.083413 -3.078828e-04
-0.083288 -3.078422e-04
-0.083163 -3.077754e-04
-0.083038 -3.076825e-04
-0.082913 -3.075633e-04
-0.082788 -3.074181e-04
-0.082663 -3.072467e-04
-0.082538 -3.070492e-04
-0.082413 -3.068256e-04
-0.082288 -3.065760e-04
-0.082163 -3.063003e-04
-0.082038 -3.059986e-04
-0.081913 -3.056709e-04
-0.081788 -3.053173e-04
-0.081663 -3.049378e-04
-0.081538 -3.045323e-04
-0.081413 -3.041011e-04
-0.081288 -3.036441e-04
-0.081163 -3.031613e-04
-0.081038 -3.026527e-04
-0.080913 -3.021186e-04
-0.080788 -3.015588e-04
-0.080663 -3.009735e-04
-0.080538 -3.003626e-04
-0.080413 -2.997264e-04
-0.080288 -2.990647e-04
-0.080163 -2.983777e-04
-0.080038 -2.976654e-04
-0.079913 -2.969280e-04
-0.079788 -2.961654e-04
-0.079663 -2.953777e-04
-0.079538 -2.945651e-04
-0.079413 -2.937275e-04
-0.079288 -2.928651e-04
-0.079163 -2.919779e-04
-0.079038 -2.910661e-04
-0.078913 -2.901296e-04
-0.078788 -2.891686e-04
-0.078663 -2.881832e-04
-0.078538 -2.871734e-04
-0.078413 -2.861394e-04
-0.078288 -2.850812e-04
-0.078163 -2.839989e-04
-0.078038 -2.828927e-04
-0.077913 -2.817626e-04
-0.077788 -2.806087e-04
-0.077663 -2.794311e-04
-0.077538 -2.782300e-04
-0.077413 -2.770054e-04
-0.077288 -2.757574e-04
-0.077163 -2.744862e-04
-0.077038 -2.731919e-04
-0.076913 -2.718745e-04
-0.076788 -2.705342e-04
-0.076663 -2.691712e-04
-0.076538 -2.677854e-04
-0.076413 -2.663772e-04
-0.076288 -2.649465e-04
-0.076163 -2.634935e-04
-0.076038 -2.620183e-04
-0.075913 -2.605211e-04
-0.075788 -2.590019e-04
-0.075663 -2.574610e-04
-0.075538 -2.558985e-04
-0.075413 -2.543144e-04
-0.075288 -2.527090e-04
-0.075163 -2.510823e-04
-0.075038 -2.494346e-04
-0.074913 -2.477659e-04
-0.074788 -2.460764e-04
-0.074663 -2.443662e-04
-0.074538 -2.426356e-04
-0.074413 -2.408846e-04
-0.074288 -2.391133e-04
-0.074163 -2.373221e-04
-0.074038 -2.355109e-04
-0.073913 -2.336800e-04
-0.073788 -2.318295e-04
-0.073663 -2.299596e-04
-0.073538 -2.280705e-04
-0.073413 -2.261622e-04
-0.073288 -2.242350e-04
-0.073163 -2.222891e-04
-0.073038 -2.203246e-04
-0.072913 -2.183416e-04
-0.072788 -2.163404e-04
-0.072663 -2.143211e-04
-0.072538 -2.122839e-04
-0.072413 -2.102290e-04
-0.072288 -2.081565e-04
-0.072163 -2.060666e-04
-0.072038 -2.039596e-04
-0.071913 -2.018355e-04
-0.071788 -1.996946e-04
-0.071663 -1.975371e-04
-0.071538 -1.953631e-04
-0.071413 -1.931728e-04
-0.071288 -1.909664e-04
-0.071163 -1.887442e-04
-0.071038 -1.865062e-04
-0.070913 -1.842527e-04
-0.070788 -1.819839e-04
-0.070663 -1.797000e-04
-0.070538 -1.774012e-04
-0.070413 -1.750876e-04
-0.070288 -1.727595e-04
-0.070163 -1.704170e-04
-0.070038 -1.680605e-04
-0.069913 -1.656900e-04
-0.069788 -1.633058e-04
-0.069663 -1.609080e-04
-0.069538 -1.584969e-04
-0.069413 -1.560728e-04
-0.069288 -1.536357e-04
-0.069163 -1.511859e-04
-0.069038 -1.487237e-04
-0.068913 -1.462491e-04
-0.068788 -1.437625e-04
-0.068663 -1.412641e-04
-0.068538 -1.387540e-04
-0.068413 -1.362325e-04
-0.068288 -1.336998e-04
-0.068163 -1.311561e-04
-0.068038 -1.286017e-04
-0.067913 -1.260367e-04
-0.067788 -1.234613e-04
-0.067663 -1.208758e-04
-0.067538 -1.182805e-04
-0.067413 -1.156755e-04
-0.067288 -1.130610e-04
-0.067163 -1.104373e-04
-0.067038 -1.078046e-04
-0.066913 -1.051631e-04
-0.066788 -1.025130e-04
-0.066663 -9.985464e-05
-0.066538 -9.718817e-05
-0.066413 -9.451382e-05
-0.066288 -9.183182e-05
-0.066163 -8.914241e-05
-0.066038 -8.644580e-05
-0.065913 -8.374224e-05
-0.065788 -8.103194e-05
-0.065663 -7.831515e-05
-0.065538 -7.559209e-05
-0.065413 -7.286299e-05
-0.065288 -7.012809e-05
-0.065163 -6.738762e-05
-0.065038 -6.464180e-05
-0.064913 -6.189089e-05
-0.064788 -5.913510e-05
-0.064663 -5.637467e-05
-0.064538 -5.360984e-05
-0.064413 -5.084084e-05
-0.064288 -4.806791e-05
-0.064163 -4.529128e-05
-0.064038 -4.251119e-05
-0.063913 -3.972787e-05
-0.063788 -3.694157e-05
-0.063663 -3.415250e-05
-0.063538 -3.136093e-05
-0.063413 -2.856707e-05
-0.063288 -2.577117e-05
-0.063163 -2.297346e-05
-0.063038 -2.017418e-05
-0.062913 -1.737357e-05
-0.062788 -1.457186e-05
-0.062663 -1.176930e-05
-0.062538 -8.966116e-06
-0.062413 -6.162550e-06
-0.062288 -3.358839e-06
-0.062163 -5.552190e-07
-0.062038 2.248072e-06
-0.061913 5.050796e-06
-0.061788 7.852717e-06
-0.061663 1.065360e-05
-0.061538 1.345320e-05
-0.061413 1.625129e-05
-0.061288 1.904763e-05
-0.061163 2.184198e-05
-0.061038 2.463411e-05
-0.060913 2.742378e-05
-0.060788 3.021076e-05
-0.060663 3.299481e-05
-0.060538 3.577569e-05
-0.060413 3.855317e-05
-0.060288 4.132702e-05
-0.060163 4.409699e-05
-0.060038 4.686287e-05
-0.059913 4.962441e-05
-0.059788 5.238139e-05
-0.059663 5.513356e-05
-0.059538 5.788070e-05
-0.059413 6.062257e-05
-0.059288 6.335895e-05
-0.059163 6.608960e-05
-0.059038 6.881430e-05
-0.058913 7.153281e-05
-0.058788 7.424490e-05
-0.058663 7.695036e-05
-0.058538 7.964894e-05
-0.058413 8.234042e-05
-0.058288 8.502458e-05
-0.058163 8.770119e-05
-0.058038 9.037002e-05
-0.057913 9.303085e-05
-0.057788 9.568346e-05
-0.057663 9.832762e-05
-0.057538 1.009631e-04
-0.057413 1.035897e-04
-0.057288 1.062072e-04
-0.057163 1.088154e-04
-0.057038 1.114140e-04
-0.056913 1.140028e-04
-0.056788 1.165817e-04
-0.056663 1.191503e-04
-0.056538 1.217086e-04
-0.056413 1.242562e-04
-0.056288 1.267929e-04
-0.056163 1.293186e-04
-0.056038 1.318330e-04
-0.055913 1.343360e-04
-0.055788 1.368272e-04
-0.055663 1.393066e-04
-0.055538 1.417738e-04
-0.055413 1.442287e-04
-0.055288 1.466712e-04
-0.055163 1.491008e-04
-0.055038 1.515176e-04
-0.054913 1.539212e-04
-0.054788 1.563115e-04
-0.054663 1.586883e-04
-0.054538 1.610513e-04
-0.054413 1.634004e-04
-0.054288 1.657354e-04
-0.054163 1.680561e-04
-0.054038 1.703622e-04
-0.053913 1.726537e-04
-0.053788 1.749302e-04
-0.053663 1.771917e-04
-0.053538 1.794379e-04
-0.053413 1.816686e-04
-0.053288 1.838837e-04
-0.053163 1.860829e-04
-0.053038 1.882662e-04
-0.052913 1.904332e-04
-0.052788 1.925838e-04
-0.052663 1.947179e-04
-0.052538 1.968353e-04
-0.052413 1.989357e-04
-0.052288 2.010191e-04
-0.052163 2.030852e-04
-0.052038 2.051339e-04
-0.051913 2.071649e-04
-0.051788 2.091782e-04
-0.051663 2.111736e-04
-0.051538 2.131508e-04
-0.051413 2.151098e-04
-0.051288 2.170504e-04
-0.051163 2.189723e-04
-0.051038 2.208755e-04
-0.050913 2.227598e-04
-0.050788 2.246251e-04
-0.050663 2.264711e-04
-0.050538 2.282977e-04
-0.050413 2.301049e-04
-0.050288 2.318923e-04
-0.050163 2.336599e-04
-0.050038 2.354076e-04
-0.049913 2.371352e-04
-0.049788 2.388425e-04
-0.049663 2.405294e-04
-0.049538 2.421957e-04
-0.049413 2.438414e-04
-0.049288 2.454663e-04
-0.049163 2.470703e-04
-0.049038 2.486532e-04
-0.048913 2.502149e-04
-0.048788 2.517552e-04
-0.048663 2.532741e-04
-0.048538 2.547714e-04
-0.048413 2.562470e-04
-0.048288 2.577008e-04
-0.048163 2.591326e-04
-0.048038 2.605424e-04
-0.047913 2.619300e-04
-0.047788 2.632953e-04
-0.047663 2.646382e-04
-0.047538 2.659586e-04
-0.047413 2.672563e-04
-0.047288 2.685314e-04
-0.047163 2.697836e-04
-0.047038 2.710128e-04
-0.046913 2.722191e-04
-0.046788 2.734022e-04
-0.046663 2.745621e-04
-0.046538 2.756986e-04
-0.046413 2.768118e-04
-0.046288 2.779014e-04
-0.046163 2.789675e-04
-0.046038 2.800098e-04
-0.045913 2.810285e-04
-0.045788 2.820232e-04
-0.045663 2.829941e-04
-0.045538 2.839409e-04
-0.045413 2.848637e-04
-0.045288 2.857623e-04
-0.045163 2.866367e-04
-0.045038 2.874868e-04
-0.044913 2.883126e-04
-0.044788 2.891139e-04
-0.044663 2.898907e-04
-0.044538 2.906430e-04
-0.044413 2.913707e-04
-0.044288 2.920737e-04
-0.044163 2.927519e-04
-0.044038 2.934054e-04
-0.043913 2.940341e-04
-0.043788 2.946379e-04
-0.043663 2.952168e-04
-0.043538 2.957707e-04
-0.043413 2.962996e-04
-0.043288 2.968034e-04
-0.043163 2.972822e-04
-0.043038 2.977358e-04
-0.042913 2.981643e-04
-0.042788 2.985676e-04
-0.042663 2.989457e-04
-0.042538 2.992985e-04
-0.042413 2.996260e-04
-0.042288 2.999283e-04
-0.042163 3.002052e-04
-0.042038 3.004568e-04
-0.041913 3.006830e-04
-0.041788 3.008839e-04
-0.041663 3.010594e-04
-0.041538 3.012095e-04
-0.041413 3.013342e-04
-0.041288 3.014335e-04
-0.041163 3.015074e-04
-0.041038 3.015558e-04
-0.040913 3.015789e-04
-0.040788 3.015766e-04
-0.040663 3.015488e-04
-0.040538 3.014956e-04
-0.040413 3.014171e-04
-0.040288 3.013132e-04
-0.040163 3.011839e-04
-0.040038 3.010293e-04
-0.039913 3.008493e-04
-0.039788 3.006440e-04
-0.039663 3.004134e-04
-0.039538 3.001576e-04
-0.039413 2.998765e-04
-0.039288 2.995702e-04
-0.039163 2.992388e-04
-0.039038 2.988821e-04
-0.038913 2.985004e-04
-0.038788 2.980936e-04
-0.038663 2.976617e-04
-0.038538 2.972049e-04
-0.038413 2.967230e-04
-0.038288 2.962163e-04
-0.038163 2.956847e-04
-0.038038 2.951283e-04
-0.037913 2.945471e-04
-0.037788 2.939412e-04
-0.037663 2.933107e-04
-0.037538 2.926556e-04
-0.037413 2.919759e-04
-0.037288 2.912717e-04
-0.037163 2.905432e-04
-0.037038 2.897903e-04
-0.036913 2.890131e-04
-0.036788 2.882117e-04
-0.036663 2.873861e-04
-0.036538 2.865365e-04
-0.036413 2.856630e-04
-0.036288 2.847655e-04
-0.036163 2.838441e-04
-0.036038 2.828991e-04
-0.035913 2.819303e-04
-0.035788 2.809380e-04
-0.035663 2.799222e-04
-0.035538 2.788830e-04
-0.035413 2.778205e-04
-0.035288 2.767348e-04
-0.035163 2.756259e-04
-0.035038 2.744941e-04
-0.034913 2.733393e-04
-0.034788 2.721617e-04
-0.034663 2.709613e-04
-0.034538 2.697384e-04
-0.034413 2.684930e-04
-0.034288 2.672252e-04
-0.034163 2.659350e-04
-0.034038 2.646228e-04
-0.033913 2.632884e-04
-0.033788 2.619322e-04
-0.033663 2.605541e-04
-0.033538 2.591543e-04
-0.033413 2.577329e-04
-0.033288 2.562901e-04
-0.033163 2.548259e-04
-0.033038 2.533406e-04
-0.032913 2.518341e-04
-0.032788 2.503068e-04
-0.032663 2.487586e-04
-0.032538 2.471897e-04
-0.032413 2.456003e-04
-0.032288 2.439905e-04
-0.032163 2.423605e-04
-0.032038 2.407103e-04
-0.031913 2.390402e-04
-0.031788 2.373502e-04
-0.031663 2.356405e-04
-0.031538 2.339113e-04
-0.031413 2.321627e-04
-0.031288 2.303949e-04
-0.031163 2.286080e-04
-0.031038 2.268022e-04
-0.030913 2.249776e-04
-0.030788 2.231343e-04
-0.030663 2.212726e-04
-0.030538 2.193927e-04
-0.030413 2.174945e-04
-0.030288 2.155785e-04
-0.030163 2.136446e-04
-0.030038 2.116930e-04
-0.029913 2.097240e-04
-0.029788 2.077377e-04
-0.029663 2.057343e-04
-0.029538 2.037139e-04
-0.029413 2.016767e-04
-0.029288 1.996229e-04
-0.029163 1.975526e-04
-0.029038 1.954662e-04
-0.028913 1.933636e-04
-0.028788 1.912451e-04
-0.028663 1.891109e-04
-0.028538 1.869612e-04
-0.028413 1.847962e-04
-0.028288 1.826159e-04
-0.028163 1.804207e-04
-0.028038 1.782108e-04
-0.027913 1.759862e-04
-0.027788 1.737472e-04
-0.027663 1.714940e-04
-0.027538 1.692268e-04
-0.027413 1.669457e-04
-0.027288 1.646510e-04
-0.027163 1.623429e-04
-0.027038 1.600215e-04
-0.026913 1.576871e-04
-0.026788 1.553398e-04
-0.026663 1.529799e-04
-0.026538 1.506076e-04
-0.026413 1.482230e-04
-0.026288 1.458264e-04
-0.026163 1.434180e-04
-0.026038 1.409979e-04
-0.025913 1.385664e-04
-0.025788 1.361237e-04
-0.025663 1.336701e-04
-0.025538 1.312056e-04
-0.025413 1.287305e-04
-0.025288 1.262451e-04
-0.025163 1.237495e-04
-0.025038 1.212439e-04
-0.024913 1.187286e-04
-0.024788 1.162038e-04
-0.024663 1.136697e-04
-0.024538 1.111265e-04
-0.024413 1.085745e-04
-0.024288 1.060138e-04
-0.024163 1.034446e-04
-0.024038 1.008672e-04
-0.023913 9.828184e-05
-0.023788 9.568868e-05
-0.023663 9.308797e-05
-0.023538 9.047991e-05
-0.023413 8.786474e-05
-0.023288 8.524267e-05
-0.023163 8.261393e-05
-0.023038 7.997874e-05
-0.022913 7.733733e-05
-0.022788 7.468991e-05
-0.022663 7.203672e-05
-0.022538 6.937798e-05
-0.022413 6.671391e-05
-0.022288 6.404474e-05
-0.022163 6.137070e-05
-0.022038 5.869201e-05
-0.021913 5.600891e-05
-0.021788 5.332161e-05
-0.021663 5.063034e-05
-0.021538 4.793534e-05
-0.021413 4.523684e-05
-0.021288 4.253505e-05
-0.021163 3.983021e-05
-0.021038 3.712255e-05
-0.020913 3.441230e-05
-0.020788 3.169969e-05
-0.020663 2.898494e-05
-0.020538 2.626829e-05
-0.020413 2.354996e-05
-0.020288 2.083019e-05
-0.020163 1.810921e-05
-0.020038 1.538724e-05
-0.019913 1.266452e-05
-0.019788 9.941275e-06
-0.019663 7.217736e-06
-0.019538 4.494133e-06
-0.019413 1.770697e-06
-0.019288 -9.523427e-07
-0.019163 -3.674756e-06
-0.019038 -6.396313e-06
-0.018913 -9.116784e-06
-0.018788 -1.183594e-05
-0.018663 -1.455355e-05
-0.018538 -1.726939e-05
-0.018413 -1.998322e-05
-0.018288 -2.269482e-05
-0.018163 -2.540396e-05
-0.018038 -2.811041e-05
-0.017913 -3.081394e-05
-0.017788 -3.351433e-05
-0.017663 -3.621135e-05
-0.017538 -3.890476e-05
-0.017413 -4.159435e-05
-0.017288 -4.427989e-05
-0.017163 -4.696114e-05
-0.017038 -4.963790e-05
-0.016913 -5.230992e-05
-0.016788 -5.497698e-05
-0.016663 -5.763887e-05
-0.016538 -6.029535e-05
-0.016413 -6.294621e-05
-0.016288 -6.559121e-05
-0.016163 -6.823015e-05
-0.016038 -7.086278e-05
-0.015913 -7.348891e-05
-0.015788 -7.610830e-05
-0.015663 -7.872073e-05
-0.015538 -8.132599e-05
-0.015413 -8.392385e-05
-0.015288 -8.651410e-05
-0.015163 -8.909652e-05
-0.015038 -9.167090e-05
-0.014913 -9.423701e-05
-0.014788 -9.679465e-05
-0.014663 -9.934359e-05
-0.014538 -1.018836e-04
-0.014413 -1.044145e-04
-0.014288 -1.069361e-04
-0.014163 -1.094482e-04
-0.014038 -1.119505e-04
-0.013913 -1.144428e-04
-0.013788 -1.169250e-04
-0.013663 -1.193967e-04
-0.013538 -1.218579e-04
-0.013413 -1.243083e-04
-0.013288 -1.267478e-04
-0.013163 -1.291760e-04
-0.013038 -1.315928e-04
-0.012913 -1.339980e-04
-0.012788 -1.363913e-04
-0.012663 -1.387727e-04
-0.012538 -1.411419e-04
-0.012413 -1.434987e-04
-0.012288 -1.458429e-04
-0.012163 -1.481742e-04
-0.012038 -1.504926e-04
-0.011913 -1.527978e-04
-0.011788 -1.550896e-04
-0.011663 -1.573679e-04
-0.011538 -1.596324e-04
-0.011413 -1.618829e-04
-0.011288 -1.641194e-04
-0.011163 -1.663414e-04
-0.011038 -1.685490e-04
-0.010913 -1.707419e-04
-0.010788 -1.729200e-04
-0.010663 -1.750829e-04
-0.010538 -1.772307e-04
-0.010413 -1.793630e-04
-0.010288 -1.814797e-04
-0.010163 -1.835807e-04
-0.010038 -1.856657e-04
-0.009913 -1.877347e-04
-0.009788 -1.897873e-04
-0.009663 -1.918235e-04
-0.009538 -1.938430e-04
-0.009413 -1.958458e-04
-0.009288 -1.978316e-04
-0.009163 -1.998003e-04
-0.009038 -2.017517e-04
-0.008913 -2.036856e-04
-0.008788 -2.056019e-04
-0.008663 -2.075005e-04
-0.008538 -2.093812e-04
-0.008413 -2.112437e-04
-0.008288 -2.130881e-04
-0.008163 -2.149140e-04
-0.008038 -2.167214e-04
-0.007913 -2.185101e-04
-0.007788 -2.202800e-04
-0.007663 -2.220309e-04
-0.007538 -2.237627e-04
-0.007413 -2.254752e-04
-0.007288 -2.271683e-04
-0.007163 -2.288419e-04
-0.007038 -2.304958e-04
-0.006913 -2.321298e-04
-0.006788 -2.337439e-04
-0.006663 -2.353379e-04
-0.006538 -2.369117e-04
-0.006413 -2.384651e-04
-0.006288 -2.399981e-04
-0.006163 -2.415105e-04
-0.006038 -2.430021e-04
-0.005913 -2.444729e-04
-0.005788 -2.459227e-04
-0.005663 -2.473514e-04
-0.005538 -2.487589e-04
-0.005413 -2.501451e-04
-0.005288 -2.515099e-04
-0.005163 -2.528531e-04
-0.005038 -2.541747e-04
-0.004913 -2.554745e-04
-0.004788 -2.567524e-04
-0.004663 -2.580084e-04
-0.004538 -2.592423e-04
-0.004413 -2.604540e-04
-0.004288 -2.616434e-04
-0.004163 -2.628105e-04
-0.004038 -2.639551e-04
-0.003913 -2.650772e-04
-0.003788 -2.661766e-04
-0.003663 -2.672533e-04
-0.003538 -2.683071e-04
-0.003413 -2.693381e-04
-0.003288 -2.703460e-04
-0.003163 -2.713309e-04
-0.003038 -2.722926e-04
-0.002913 -2.732311e-04
-0.002788 -2.741463e-04
-0.002663 -2.750382e-04
-0.002538 -2.759066e-04
-0.002413 -2.767514e-04
-0.002288 -2.775727e-04
-0.002163 -2.783703e-04
-0.002038 -2.791443e-04
-0.001913 -2.798944e-04
-0.001788 -2.806208e-04
-0.001663 -2.813232e-04
-0.001538 -2.820017e-04
-0.001413 -2.826562e-04
-0.001288 -2.832866e-04
-0.001163 -2.838930e-04
-0.001038 -2.844752e-04
-0.000913 -2.850332e-04
-0.000788 -2.855670e-04
-0.000663 -2.860766e-04
-0.000538 -2.865618e-04
-0.000413 -2.870226e-04
-0.000288 -2.874591e-04
-0.000163 -2.878712e-04
-0.000038 -2.882589e-04
0.000087 -2.886220e-04
0.000212 -2.889607e-04
0.000337 -2.892748e-04
0.000462 -2.895644e-04
0.000587 -2.898295e-04
0.000712 -2.900699e-04
0.000837 -2.902858e-04
0.000962 -2.904770e-04
0.001087 -2.906436e-04
0.001212 -2.907856e-04
0.001337 -2.909030e-04
0.001462 -2.909957e-04
0.001587 -2.910637e-04
0.001712 -2.911071e-04
0.001837 -2.911259e-04
0.001962 -2.911200e-04
0.002087 -2.910895e-04
0.002212 -2.910343e-04
0.002337 -2.909545e-04
0.002462 -2.908501e-04
0.002587 -2.907211e-04
0.002712 -2.905675e-04
0.002837 -2.903893e-04
0.002962 -2.901866e-04
0.003087 -2.899594e-04
0.003212 -2.897077e-04
0.003337 -2.894314e-04
0.003462 -2.891308e-04
0.003587 -2.888057e-04
0.003712 -2.884562e-04
0.003837 -2.880824e-04
0.003962 -2.876842e-04
0.004087 -2.872618e-04
0.004212 -2.868151e-04
0.004337 -2.863443e-04
0.004462 -2.858493e-04
0.004587 -2.853301e-04
0.004712 -2.847869e-04
0.004837 -2.842198e-04
0.004962 -2.836286e-04
0.005087 -2.830135e-04
0.005212 -2.823746e-04
0.005337 -2.817120e-04
0.005462 -2.810255e-04
0.005587 -2.803155e-04
0.005712 -2.795818e-04
0.005837 -2.788246e-04
0.005962 -2.780439e-04
0.006087 -2.772398e-04
0.006212 -2.764124e-04
0.006337 -2.755618e-04
0.006462 -2.746879e-04
0.006587 -2.737910e-04
0.006712 -2.728711e-04
0.006837 -2.719282e-04
0.006962 -2.709625e-04
0.007087 -2.699740e-04
0.007212 -2.689629e-04
0.007337 -2.679291e-04
0.007462 -2.668729e-04
0.007587 -2.657942e-04
0.007712 -2.646933e-04
0.007837 -2.635701e-04
0.007962 -2.624248e-04
0.008087 -2.612575e-04
0.008212 -2.600684e-04
0.008337 -2.588574e-04
0.008462 -2.576247e-04
0.008587 -2.563704e-04
0.008712 -2.550946e-04
0.008837 -2.537975e-04
0.008962 -2.524791e-04
0.009087 -2.511396e-04
0.009212 -2.497790e-04
0.009337 -2.483976e-04
0.009462 -2.469954e-04
0.009587 -2.455725e-04
0.009712 -2.441291e-04
0.009837 -2.426652e-04
0.009962 -2.411811e-04
0.010087 -2.396768e-04
0.010212 -2.381525e-04
0.010337 -2.366083e-04
0.010462 -2.350444e-04
0.010587 -2.334608e-04
0.010712 -2.318578e-04
0.010837 -2.302354e-04
0.010962 -2.285938e-04
0.011087 -2.269331e-04
0.011212 -2.252535e-04
0.011337 -2.235552e-04
0.011462 -2.218382e-04
0.011587 -2.201027e-04
0.011712 -2.183490e-04
0.011837 -2.165770e-04
0.011962 -2.147870e-04
0.012087 -2.129791e-04
0.012212 -2.111536e-04
0.012337 -2.093104e-04
0.012462 -2.074499e-04
0.012587 -2.055722e-04
0.012712 -2.036773e-04
0.012837 -2.017656e-04
0.012962 -1.998371e-04
0.013087 -1.978920e-04
0.013212 -1.959305e-04
0.013337 -1.939528e-04
0.013462 -1.919590e-04
0.013587 -1.899493e-04
0.013712 -1.879238e-04
0.013837 -1.858828e-04
0.013962 -1.838264e-04
0.014087 -1.817549e-04
0.014212 -1.796682e-04
0.014337 -1.775668e-04
0.014462 -1.754506e-04
0.014587 -1.733200e-04
0.014712 -1.711751e-04
0.014837 -1.690160e-04
0.014962 -1.668431e-04
0.015087 -1.646563e-04
0.015212 -1.624560e-04
0.015337 -1.602424e-04
0.015462 -1.580155e-04
0.015587 -1.557756e-04
0.015712 -1.535230e-04
0.015837 -1.512577e-04
0.015962 -1.489801e-04
0.016087 -1.466901e-04
0.016212 -1.443882e-04
0.016337 -1.420745e-04
0.016462 -1.397491e-04
0.016587 -1.374122e-04
0.016712 -1.350642e-04
0.016837 -1.327051e-04
0.016962 -1.303352e-04
0.017087 -1.279546e-04
0.017212 -1.255636e-04
0.017337 -1.231624e-04
0.017462 -1.207512e-04
0.017587 -1.183302e-04
0.017712 -1.158995e-04
0.017837 -1.134595e-04
0.017962 -1.110102e-04
0.018087 -1.085520e-04
0.018212 -1.060850e-04
0.018337 -1.036094e-04
0.018462 -1.011255e-04
0.018587 -9.863347e-05
0.018712 -9.613348e-05
0.018837 -9.362577e-05
0.018962 -9.111056e-05
0.019087 -8.858806e-05
0.019212 -8.605848e-05
0.019337 -8.352203e-05
0.019462 -8.097894e-05
0.019587 -7.842942e-05
0.019712 -7.587369e-05
0.019837 -7.331196e-05
0.019962 -7.074445e-05
0.020087 -6.817138e-05
0.020212 -6.559296e-05
0.020337 -6.300942e-05
0.020462 -6.042098e-05
0.020587 -5.782785e-05
0.020712 -5.523025e-05
0.020837 -5.262841e-05
0.020962 -5.002254e-05
0.021087 -4.741287e-05
0.021212 -4.479961e-05
0.021337 -4.218299e-05
0.021462 -3.956323e-05
0.021587 -3.694055e-05
0.021712 -3.431518e-05
0.021837 -3.168733e-05
0.021962 -2.905723e-05
0.022087 -2.642510e-05
0.022212 -2.379116e-05
0.022337 -2.115564e-05
0.022462 -1.851876e-05
0.022587 -1.588073e-05
0.022712 -1.324180e-05
0.022837 -1.060217e-05
0.022962 -7.962069e-06
0.023087 -5.321724e-06
0.023212 -2.681355e-06
0.023337 -4.118662e-08
0.023462 2.598560e-06
0.023587 5.237660e-06
0.023712 7.875893e-06
0.023837 1.051303e-05
0.023962 1.314886e-05
0.024087 1.578316e-05
0.024212 1.841569e-05
0.024337 2.104625e-05
0.024462 2.367460e-05
0.024587 2.630053e-05
0.024712 2.892382e-05
0.024837 3.154424e-05
0.024962 3.416157e-05
0.025087 3.677560e-05
0.025212 3.938610e-05
0.025337 4.199286e-05
0.025462 4.459564e-05
0.025587 4.719425e-05
0.025712 4.978845e-05
0.025837 5.237802e-05
0.025962 5.496276e-05
0.026087 5.754244e-05
0.026212 6.011685e-05
0.026337 6.268577e-05
0.026462 6.524898e-05
0.026587 6.780626e-05
0.026712 7.035742e-05
0.026837 7.290222e-05
0.026962 7.544045e-05
0.027087 7.797191e-05
0.027212 8.049638e-05
0.027337 8.301364e-05
0.027462 8.552350e-05
0.027587 8.802572e-05
0.027712 9.052012e-05
0.027837 9.300647e-05
0.027962 9.548457e-05
0.028087 9.795421e-05
0.028212 1.004152e-04
0.028337 1.028673e-04
0.028462 1.053103e-04
0.028587 1.077441e-04
0.028712 1.101683e-04
0.028837 1.125829e-04
0.028962 1.149876e-04
0.029087 1.173821e-04
0.029212 1.197664e-04
0.029337 1.221402e-04
0.029462 1.245033e-04
0.029587 1.268556e-04
0.029712 1.291967e-04
0.029837 1.315266e-04
0.029962 1.338449e-04
0.030087 1.361516e-04
0.030212 1.384465e-04
0.030337 1.407293e-04
0.030462 1.429999e-04
0.030587 1.452580e-04
0.030712 1.475035e-04
0.030837 1.497362e-04
0.030962 1.519559e-04
0.031087 1.541624e-04
0.031212 1.563555e-04
0.031337 1.585352e-04
0.031462 1.607010e-04
0.031587 1.628530e-04
0.031712 1.649909e-04
0.031837 1.671145e-04
0.031962 1.692237e-04
0.032087 1.713183e-04
0.032212 1.733980e-04
0.032337 1.754629e-04
0.032462 1.775125e-04
0.032587 1.795469e-04
0.032712 1.815658e-04
0.032837 1.835690e-04
0.032962 1.855565e-04
0.033087 1.875280e-04
0.033212 1.894833e-04
0.033337 1.914223e-04
0.033462 1.933449e-04
0.033587 1.952509e-04
0.033712 1.971401e-04
0.033837 1.990123e-04
0.033962 2.008675e-04
0.034087 2.027054e-04
0.034212 2.045259e-04
0.034337 2.063289e-04
0.034462 2.081142e-04
0.034587 2.098816e-04
0.034712 2.116311e-04
0.034837 2.133624e-04
0.034962 2.150755e-04
0.035087 2.167702e-04
0.035212 2.184463e-04
0.035337 2.201037e-04
0.035462 2.217422e-04
0.035587 2.233619e-04
0.035712 2.249624e-04
0.035837 2.265437e-04
0.035962 2.281056e-04
0.036087 2.296480e-04
0.036212 2.311709e-04
0.036337 2.326740e-04
0.036462 2.341572e-04
0.036587 2.356205e-04
0.036712 2.370636e-04
0.036837 2.384866e-04
0.036962 2.398892e-04
0.037087 2.412713e-04
0.037212 2.426329e-04
0.037337 2.439738e-04
0.037462 2.452939e-04
0.037587 2.465932e-04
0.037712 2.478714e-04
0.037837 2.491285e-04
0.037962 2.503645e-04
0.038087 2.515791e-04
0.038212 2.527723e-04
0.038337 2.539441e-04
0.038462 2.550942e-04
0.038587 2.562227e-04
0.038712 2.573293e-04
0.038837 2.584142e-04
0.038962 2.594770e-04
0.039087 2.605178e-04
0.039212 2.615365e-04
0.039337 2.625330e-04
0.039462 2.635072e-04
0.039587 2.644590e-04
0.039712 2.653884e-04
0.039837 2.662953e-04
0.039962 2.671796e-04
0.040087 2.680412e-04
0.040212 2.688802e-04
0.040337 2.696963e-04
0.040462 2.704895e-04
0.040587 2.712599e-04
0.040712 2.720073e-04
0.040837 2.727316e-04
0.040962 2.734328e-04
0.041087 2.741109e-04
0.041212 2.747658e-04
0.041337 2.753975e-04
0.041462 2.760058e-04
0.041587 2.765908e-04
0.041712 2.771524e-04
0.041837 2.776905e-04
0.041962 2.782052e-04
0.042087 2.786964e-04
0.042212 2.791640e-04
0.042337 2.796080e-04
0.042462 2.800284e-04
0.042587 2.804251e-04
0.042712 2.807982e-04
0.042837 2.811475e-04
0.042962 2.814732e-04
0.043087 2.817750e-04
0.043212 2.820531e-04
0.043337 2.823074e-04
0.043462 2.825379e-04
0.043587 2.827445e-04
0.043712 2.829273e-04
0.043837 2.830863e-04
0.043962 2.832214e-04
0.044087 2.833326e-04
0.044212 2.834200e-04
0.044337 2.834835e-04
0.044462 2.835231e-04
0.044587 2.835388e-04
0.044712 2.835307e-04
0.044837 2.834987e-04
0.044962 2.834428e-04
0.045087 2.833631e-04
0.045212 2.832596e-04
0.045337 2.831322e-04
0.045462 2.829810e-04
0.045587 2.828060e-04
0.045712 2.826073e-04
0.045837 2.823848e-04
0.045962 2.821386e-04
0.046087 2.818686e-04
0.046212 2.815750e-04
0.046337 2.812578e-04
0.046462 2.809169e-04
0.046587 2.805525e-04
0.046712 2.801645e-04
0.046837 2.797530e-04
0.046962 2.793181e-04
0.047087 2.788597e-04
0.047212 2.783779e-04
0.047337 2.778728e-04
0.047462 2.773444e-04
0.047587 2.767928e-04
0.047712 2.762179e-04
0.047837 2.756199e-04
0.047962 2.749989e-04
0.048087 2.743548e-04
0.048212 2.736877e-04
0.048337 2.729978e-04
0.048462 2.722850e-04
0.048587 2.715494e-04
0.048712 2.707911e-04
0.048837 2.700102e-04
0.048962 2.692067e-04
0.049087 2.683806e-04
0.049212 2.675322e-04
0.049337 2.666614e-04
0.049462 2.657683e-04
0.049587 2.648531e-04
0.049712 2.639157e-04
0.049837 2.629563e-04
0.049962 2.619750e-04
0.050087 2.609718e-04
0.050212 2.599468e-04
0.050337 2.589001e-04
0.050462 2.578319e-04
0.050587 2.567422e-04
0.050712 2.556311e-04
0.050837 2.544987e-04
0.050962 2.533451e-04
0.051087 2.521704e-04
0.051212 2.509747e-04
0.051337 2.497581e-04
0.051462 2.485208e-04
0.051587 2.472627e-04
0.051712 2.459842e-04
0.051837 2.446851e-04
0.051962 2.433658e-04
0.052087 2.420262e-04
0.052212 2.406665e-04
0.052337 2.392868e-04
0.052462 2.378873e-04
0.052587 2.364681e-04
0.052712 2.350292e-04
0.052837 2.335708e-04
0.052962 2.320931e-04
0.053087 2.305961e-04
0.053212 2.290800e-04
0.053337 2.275450e-04
0.053462 2.259911e-04
0.053587 2.244185e-04
0.053712 2.228273e-04
0.053837 2.212177e-04
0.053962 2.195898e-04
0.054087 2.179438e-04
0.054212 2.162798e-04
0.054337 2.145978e-04
0.054462 2.128982e-04
0.054587 2.111810e-04
0.054712 2.094464e-04
0.054837 2.076945e-04
0.054962 2.059255e-04
0.055087 2.041396e-04
0.055212 2.023368e-04
0.055337 2.005173e-04
0.055462 1.986814e-04
0.055587 1.968291e-04
0.055712 1.949606e-04
0.055837 1.930761e-04
0.055962 1.911758e-04
0.056087 1.892597e-04
0.056212 1.873281e-04
0.056337 1.853812e-04
0.056462 1.834190e-04
0.056587 1.814419e-04
0.056712 1.794498e-04
0.056837 1.774431e-04
0.056962 1.754219e-04
0.057087 1.733863e-04
0.057212 1.713366e-04
0.057337 1.692729e-04
0.057462 1.671953e-04
0.057587 1.651041e-04
0.057712 1.629995e-04
0.057837 1.608816e-04
0.057962 1.587506e-04
0.058087 1.566067e-04
0.058212 1.544500e-04
0.058337 1.522808e-04
0.058462 1.500993e-04
0.058587 1.479056e-04
0.058712 1.456999e-04
0.058837 1.434824e-04
0.058962 1.412533e-04