-0.102788 -1.027622e-04
-0.102663 -1.012662e-04
-0.102538 -9.976354e-05
-0.102413 -9.825437e-05
-0.102288 -9.673880e-05
-0.102163 -9.521697e-05
-0.102038 -9.368898e-05
-0.101913 -9.215498e-05
-0.101788 -9.061509e-05
-0.101663 -8.906942e-05
-0.101538 -8.751811e-05
-0.101413 -8.596129e-05
-0.101288 -8.439907e-05
-0.101163 -8.283159e-05
-0.101038 -8.125898e-05
-0.100913 -7.968136e-05
-0.100788 -7.809886e-05
-0.100663 -7.651161e-05
-0.100538 -7.491974e-05
-0.100413 -7.332338e-05
-0.100288 -7.172265e-05
-0.100163 -7.011768e-05
-0.100038 -6.850861e-05
-0.099913 -6.689556e-05
-0.099788 -6.527867e-05
-0.099663 -6.365806e-05
-0.099538 -6.203386e-05
-0.099413 -6.040621e-05
-0.099288 -5.877523e-05
-0.099163 -5.714106e-05
-0.099038 -5.550383e-05
-0.098913 -5.386366e-05
-0.098788 -5.222069e-05
-0.098663 -5.057505e-05
-0.098538 -4.892687e-05
-0.098413 -4.727628e-05
-0.098288 -4.562341e-05
-0.098163 -4.396840e-05
-0.098038 -4.231138e-05
-0.097913 -4.065247e-05
-0.097788 -3.899181e-05
-0.097663 -3.732953e-05
-0.097538 -3.566576e-05
-0.097413 -3.400064e-05
-0.097288 -3.233429e-05
-0.097163 -3.066685e-05
-0.097038 -2.899845e-05
-0.096913 -2.732921e-05
-0.096788 -2.565928e-05
-0.096663 -2.398878e-05
-0.096538 -2.231784e-05
-0.096413 -2.064660e-05
-0.096288 -1.897518e-05
-0.096163 -1.730372e-05
-0.096038 -1.563235e-05
-0.095913 -1.396119e-05
-0.095788 -1.229039e-05
-0.095663 -1.062006e-05
-0.095538 -8.950338e-06
-0.095413 -7.281358e-06
-0.095288 -5.613247e-06
-0.095163 -3.946135e-06
-0.095038 -2.280151e-06
-0.094913 -6.154253e-07
-0.094788 1.047914e-06
-0.094663 2.709737e-06
-0.094538 4.369916e-06
-0.094413 6.028323e-06
-0.094288 7.684828e-06
-0.094163 9.339305e-06
-0.094038 1.099163e-05
-0.093913 1.264166e-05
-0.093788 1.428929e-05
-0.093663 1.593438e-05
-0.093538 1.757680e-05
-0.093413 1.921644e-05
-0.093288 2.085316e-05
-0.093163 2.248684e-05
-0.093038 2.411735e-05
-0.092913 2.574457e-05
-0.092788 2.736838e-05
-0.092663 2.898865e-05
-0.092538 3.060525e-05
-0.092413 3.221807e-05
-0.092288 3.382698e-05
-0.092163 3.543187e-05
-0.092038 3.703259e-05
-0.091913 3.862905e-05
-0.091788 4.022111e-05
-0.091663 4.180865e-05
-0.091538 4.339156e-05
-0.091413 4.496971e-05
-0.091288 4.654299e-05
-0.091163 4.811128e-05
-0.091038 4.967445e-05
-0.090913 5.123240e-05
-0.090788 5.278500e-05
-0.090663 5.433213e-05
-0.090538 5.587369e-05
-0.090413 5.740956e-05
-0.090288 5.893961e-05
-0.090163 6.046374e-05
-0.090038 6.198183e-05
-0.089913 6.349378e-05
-0.089788 6.499946e-05
-0.089663 6.649876e-05
-0.089538 6.799158e-05
-0.089413 6.947779e-05
-0.089288 7.095730e-05
-0.089163 7.243000e-05
-0.089038 7.389576e-05
-0.088913 7.535449e-05
-0.088788 7.680608e-05
-0.088663 7.825041e-05
-0.088538 7.968739e-05
-0.088413 8.111691e-05
-0.088288 8.253886e-05
-0.088163 8.395314e-05
-0.088038 8.535964e-05
-0.087913 8.675826e-05
-0.087788 8.814890e-05
-0.087663 8.953147e-05
-0.087538 9.090584e-05
-0.087413 9.227194e-05
-0.087288 9.362965e-05
-0.087163 9.497888e-05
-0.087038 9.631953e-05
-0.086913 9.765150e-05
-0.086788 9.897470e-05
-0.086663 1.002890e-04
-0.086538 1.015944e-04
-0.086413 1.028907e-04
-0.086288 1.041779e-04
-0.086163 1.054558e-04
-0.086038 1.067244e-04
-0.085913 1.079835e-04
-0.085788 1.092332e-04
-0.085663 1.104732e-04
-0.085538 1.117036e-04
-0.085413 1.129241e-04
-0.085288 1.141348e-04
-0.085163 1.153356e-04
-0.085038 1.165263e-04
-0.084913 1.177069e-04
-0.084788 1.188773e-04
-0.084663 1.200374e-04
-0.084538 1.211871e-04
-0.084413 1.223264e-04
-0.084288 1.234551e-04
-0.084163 1.245733e-04
-0.084038 1.256807e-04
-0.083913 1.267774e-04
-0.083788 1.278633e-04
-0.083663 1.289382e-04
-0.083538 1.300021e-04
-0.083413 1.310550e-04
-0.083288 1.320968e-04
-0.083163 1.331273e-04
-0.083038 1.341466e-04
-0.082913 1.351545e-04
-0.082788 1.361510e-04
-0.082663 1.371360e-04
-0.082538 1.381095e-04
-0.082413 1.390714e-04
-0.082288 1.400216e-04
-0.082163 1.409600e-04
-0.082038 1.418866e-04
-0.081913 1.428014e-04
-0.081788 1.437042e-04
-0.081663 1.445951e-04
-0.081538 1.454739e-04
-0.081413 1.463406e-04
-0.081288 1.471951e-04
-0.081163 1.480374e-04
-0.081038 1.488674e-04
-0.080913 1.496851e-04
-0.080788 1.504905e-04
-0.080663 1.512834e-04
-0.080538 1.520638e-04
-0.080413 1.528316e-04
-0.080288 1.535869e-04
-0.080163 1.543296e-04
-0.080038 1.550596e-04
-0.079913 1.557768e-04
-0.079788 1.564813e-04
-0.079663 1.571730e-04
-0.079538 1.578518e-04
-0.079413 1.585178e-04
-0.079288 1.591708e-04
-0.079163 1.598108e-04
-0.079038 1.604378e-04
-0.078913 1.610517e-04
-0.078788 1.616526e-04
-0.078663 1.622403e-04
-0.078538 1.628149e-04
-0.078413 1.633763e-04
-0.078288 1.639244e-04
-0.078163 1.644593e-04
-0.078038 1.649810e-04
-0.077913 1.654893e-04
-0.077788 1.659842e-04
-0.077663 1.664658e-04
-0.077538 1.669340e-04
-0.077413 1.673888e-04
-0.077288 1.678302e-04
-0.077163 1.682580e-04
-0.077038 1.686724e-04
-0.076913 1.690733e-04
-0.076788 1.694606e-04
-0.076663 1.698344e-04
-0.076538 1.701947e-04
-0.076413 1.705413e-04
-0.076288 1.708744e-04
-0.076163 1.711939e-04
-0.076038 1.714997e-04
-0.075913 1.717919e-04
-0.075788 1.720705e-04
-0.075663 1.723354e-04
-0.075538 1.725866e-04
-0.075413 1.728242e-04
-0.075288 1.730481e-04
-0.075163 1.732583e-04
-0.075038 1.734548e-04
-0.074913 1.736377e-04
-0.074788 1.738068e-04
-0.074663 1.739623e-04
-0.074538 1.741040e-04
-0.074413 1.742321e-04
-0.074288 1.743464e-04
-0.074163 1.744471e-04
-0.074038 1.745341e-04
-0.073913 1.746074e-04
-0.073788 1.746671e-04
-0.073663 1.747131e-04
-0.073538 1.747454e-04
-0.073413 1.747641e-04
-0.073288 1.747691e-04
-0.073163 1.747605e-04
-0.073038 1.747383e-04
-0.072913 1.747025e-04
-0.072788 1.746532e-04
-0.072663 1.745902e-04
-0.072538 1.745137e-04
-0.072413 1.744237e-04
-0.072288 1.743201e-04
-0.072163 1.742031e-04
-0.072038 1.740725e-04
-0.071913 1.739286e-04
-0.071788 1.737712e-04
-0.071663 1.736003e-04
-0.071538 1.734162e-04
-0.071413 1.732186e-04
-0.071288 1.730077e-04
-0.071163 1.727835e-04
-0.071038 1.725461e-04
-0.070913 1.722954e-04
-0.070788 1.720315e-04
-0.070663 1.717544e-04
-0.070538 1.714642e-04
-0.070413 1.711608e-04
-0.070288 1.708444e-04
-0.070163 1.705150e-04
-0.070038 1.701725e-04
-0.069913 1.698171e-04
-0.069788 1.694487e-04
-0.069663 1.690675e-04
-0.069538 1.686734e-04
-0.069413 1.682665e-04
-0.069288 1.678469e-04
-0.069163 1.674145e-04
-0.069038 1.669695e-04
-0.068913 1.665118e-04
-0.068788 1.660416e-04
-0.068663 1.655588e-04
-0.068538 1.650635e-04
-0.068413 1.645558e-04
-0.068288 1.640358e-04
-0.068163 1.635033e-04
-0.068038 1.629586e-04
-0.067913 1.624017e-04
-0.067788 1.618326e-04
-0.067663 1.612514e-04
-0.067538 1.606581e-04
-0.067413 1.600528e-04
-0.067288 1.594356e-04
-0.067163 1.588064e-04
-0.067038 1.581655e-04
-0.066913 1.575127e-04
-0.066788 1.568483e-04
-0.066663 1.561722e-04
-0.066538 1.554845e-04
-0.066413 1.547853e-04
-0.066288 1.540746e-04
-0.066163 1.533525e-04
-0.066038 1.526191e-04
-0.065913 1.518745e-04
-0.065788 1.511186e-04
-0.065663 1.503517e-04
-0.065538 1.495736e-04
-0.065413 1.487846e-04
-0.065288 1.479847e-04
-0.065163 1.471739e-04
-0.065038 1.463524e-04
-0.064913 1.455201e-04
-0.064788 1.446773e-04
-0.064663 1.438239e-04
-0.064538 1.429600e-04
-0.064413 1.420857e-04
-0.064288 1.412011e-04
-0.064163 1.403062e-04
-0.064038 1.394012e-04
-0.063913 1.384861e-04
-0.063788 1.375610e-04
-0.063663 1.366260e-04
-0.063538 1.356811e-04
-0.063413 1.347265e-04
-0.063288 1.337622e-04
-0.063163 1.327883e-04
-0.063038 1.318049e-04
-0.062913 1.308120e-04
-0.062788 1.298098e-04
-0.062663 1.287984e-04
-0.062538 1.277778e-04
-0.062413 1.267481e-04
-0.062288 1.257094e-04
-0.062163 1.246618e-04
-0.062038 1.236054e-04
-0.061913 1.225402e-04
-0.061788 1.214664e-04
-0.061663 1.203841e-04
-0.061538 1.192933e-04
-0.061413 1.181942e-04
-0.061288 1.170868e-04
-0.061163 1.159712e-04
-0.061038 1.148475e-04
-0.060913 1.137158e-04
-0.060788 1.125763e-04
-0.060663 1.114289e-04
-0.060538 1.102739e-04
-0.060413 1.091112e-04
-0.060288 1.079410e-04
-0.060163 1.067634e-04
-0.060038 1.055785e-04
-0.059913 1.043864e-04
-0.059788 1.031872e-04
-0.059663 1.019809e-04
-0.059538 1.007678e-04
-0.059413 9.954777e-05
-0.059288 9.832106e-05
-0.059163 9.708773e-05
-0.059038 9.584788e-05
-0.058913 9.460163e-05
-0.058788 9.334906e-05
-0.058663 9.209028e-05
-0.058538 9.082540e-05
-0.058413 8.955451e-05
-0.058288 8.827772e-05
-0.058163 8.699515e-05
-0.058038 8.570688e-05
-0.057913 8.441302e-05
-0.057788 8.311369e-05
-0.057663 8.180898e-05
-0.057538 8.049901e-05
-0.057413 7.918387e-05
-0.057288 7.786368e-05
-0.057163 7.653854e-05
-0.057038 7.520855e-05
-0.056913 7.387384e-05
-0.056788 7.253449e-05
-0.056663 7.119063e-05
-0.056538 6.984236e-05
-0.056413 6.848978e-05
-0.056288 6.713301e-05
-0.056163 6.577216e-05
-0.056038 6.440733e-05
-0.055913 6.303864e-05
-0.055788 6.166618e-05
-0.055663 6.029008e-05
-0.055538 5.891045e-05
-0.055413 5.752739e-05
-0.055288 5.614101e-05
-0.055163 5.475142e-05
-0.055038 5.335874e-05
-0.054913 5.196307e-05
-0.054788 5.056453e-05
-0.054663 4.916322e-05
-0.054538 4.775927e-05
-0.054413 4.635277e-05
-0.054288 4.494384e-05
-0.054163 4.353259e-05
-0.054038 4.211914e-05
-0.053913 4.070359e-05
-0.053788 3.928606e-05
-0.053663 3.786665e-05
-0.053538 3.644549e-05
-0.053413 3.502267e-05
-0.053288 3.359832e-05
-0.053163 3.217254e-05
-0.053038 3.074545e-05
-0.052913 2.931716e-05
-0.052788 2.788777e-05
-0.052663 2.645741e-05
-0.052538 2.502619e-05
-0.052413 2.359420e-05
-0.052288 2.216158e-05
-0.052163 2.072842e-05
-0.052038 1.929484e-05
-0.051913 1.786096e-05
-0.051788 1.642688e-05
-0.051663 1.499271e-05
-0.051538 1.355857e-05
-0.051413 1.212456e-05
-0.051288 1.069081e-05
-0.051163 9.257410e-06
-0.051038 7.824482e-06
-0.050913 6.392135e-06
-0.050788 4.960478e-06
-0.050663 3.529622e-06
-0.050538 2.099678e-06
-0.050413 6.707562e-07
-0.050288 -7.570347e-07
-0.050163 -2.183584e-06
-0.050038 -3.608783e-06
-0.049913 -5.032522e-06
-0.049788 -6.454692e-06
-0.049663 -7.875183e-06
-0.049538 -9.293888e-06
-0.049413 -1.071070e-05
-0.049288 -1.212550e-05
-0.049163 -1.353820e-05
-0.049038 -1.494868e-05
-0.048913 -1.635683e-05
-0.048788 -1.776254e-05
-0.048663 -1.916572e-05
-0.048538 -2.056625e-05
-0.048413 -2.196402e-05
-0.048288 -2.335894e-05
-0.048163 -2.475089e-05
-0.048038 -2.613977e-05
-0.047913 -2.752548e-05
-0.047788 -2.890791e-05
-0.047663 -3.028695e-05
-0.047538 -3.166250e-05
-0.047413 -3.303447e-05
-0.047288 -3.440274e-05
-0.047163 -3.576721e-05
-0.047038 -3.712777e-05
-0.046913 -3.848434e-05
-0.046788 -3.983680e-05
-0.046663 -4.118506e-05
-0.046538 -4.252901e-05
-0.046413 -4.386856e-05
-0.046288 -4.520360e-05
-0.046163 -4.653403e-05
-0.046038 -4.785975e-05
-0.045913 -4.918068e-05
-0.045788 -5.049670e-05
-0.045663 -5.180771e-05
-0.045538 -5.311364e-05
-0.045413 -5.441436e-05
-0.045288 -5.570980e-05
-0.045163 -5.699985e-05
-0.045038 -5.828442e-05
-0.044913 -5.956341e-05
-0.044788 -6.083673e-05
-0.044663 -6.210429e-05
-0.044538 -6.336598e-05
-0.044413 -6.462173e-05
-0.044288 -6.587143e-05
-0.044163 -6.711500e-05
-0.044038 -6.835235e-05
-0.043913 -6.958337e-05
-0.043788 -7.080799e-05
-0.043663 -7.202612e-05
-0.043538 -7.323766e-05
-0.043413 -7.444252e-05
-0.043288 -7.564063e-05
-0.043163 -7.683189e-05
-0.043038 -7.801621e-05
-0.042913 -7.919352e-05
-0.042788 -8.036372e-05
-0.042663 -8.152673e-05
-0.042538 -8.268246e-05
-0.042413 -8.383084e-05
-0.042288 -8.497178e-05
-0.042163 -8.610520e-05
-0.042038 -8.723102e-05
-0.041913 -8.834915e-05
-0.041788 -8.945951e-05
-0.041663 -9.056204e-05
-0.041538 -9.165664e-05
-0.041413 -9.274324e-05
-0.041288 -9.382177e-05
-0.041163 -9.489214e-05
-0.041038 -9.595428e-05
-0.040913 -9.700811e-05
-0.040788 -9.805357e-05
-0.040663 -9.909057e-05
-0.040538 -1.001190e-04
-0.040413 -1.011389e-04
-0.040288 -1.021501e-04
-0.040163 -1.031526e-04
-0.040038 -1.041462e-04
-0.039913 -1.051310e-04
-0.039788 -1.061068e-04
-0.039663 -1.070736e-04
-0.039538 -1.080313e-04
-0.039413 -1.089799e-04
-0.039288 -1.099192e-04
-0.039163 -1.108493e-04
-0.039038 -1.117700e-04
-0.038913 -1.126813e-04
-0.038788 -1.135831e-04
-0.038663 -1.144754e-04
-0.038538 -1.153581e-04
-0.038413 -1.162312e-04
-0.038288 -1.170945e-04
-0.038163 -1.179480e-04
-0.038038 -1.187917e-04
-0.037913 -1.196256e-04
-0.037788 -1.204495e-04
-0.037663 -1.212633e-04
-0.037538 -1.220672e-04
-0.037413 -1.228609e-04
-0.037288 -1.236444e-04
-0.037163 -1.244178e-04
-0.037038 -1.251809e-04
-0.036913 -1.259336e-04
-0.036788 -1.266760e-04
-0.036663 -1.274080e-04
-0.036538 -1.281295e-04
-0.036413 -1.288405e-04
-0.036288 -1.295410e-04
-0.036163 -1.302308e-04
-0.036038 -1.309100e-04
-0.035913 -1.315786e-04
-0.035788 -1.322363e-04
-0.035663 -1.328834e-04
-0.035538 -1.335196e-04
-0.035413 -1.341449e-04
-0.035288 -1.347593e-04
-0.035163 -1.353629e-04
-0.035038 -1.359554e-04
-0.034913 -1.365369e-04
-0.034788 -1.371074e-04
-0.034663 -1.376669e-04
-0.034538 -1.382152e-04
-0.034413 -1.387523e-04
-0.034288 -1.392783e-04
-0.034163 -1.397931e-04
-0.034038 -1.402966e-04
-0.033913 -1.407889e-04
-0.033788 -1.412698e-04
-0.033663 -1.417395e-04
-0.033538 -1.421978e-04
-0.033413 -1.426447e-04
-0.033288 -1.430802e-04
-0.033163 -1.435043e-04
-0.033038 -1.439169e-04
-0.032913 -1.443181e-04
-0.032788 -1.447077e-04
-0.032663 -1.450859e-04
-0.032538 -1.454525e-04
-0.032413 -1.458076e-04
-0.032288 -1.461511e-04
-0.032163 -1.464830e-04
-0.032038 -1.468033e-04
-0.031913 -1.471119e-04
-0.031788 -1.474090e-04
-0.031663 -1.476944e-04
-0.031538 -1.479681e-04
-0.031413 -1.482302e-04
-0.031288 -1.484805e-04
-0.031163 -1.487192e-04
-0.031038 -1.489462e-04
-0.030913 -1.491615e-04
-0.030788 -1.493651e-04
-0.030663 -1.495569e-04
-0.030538 -1.497370e-04
-0.030413 -1.499054e-04
-0.030288 -1.500621e-04
-0.030163 -1.502070e-04
-0.030038 -1.503402e-04
-0.029913 -1.504616e-04
-0.029788 -1.505713e-04
-0.029663 -1.506693e-04
-0.029538 -1.507555e-04
-0.029413 -1.508300e-04
-0.029288 -1.508928e-04
-0.029163 -1.509438e-04
-0.029038 -1.509831e-04
-0.028913 -1.510107e-04
-0.028788 -1.510266e-04
-0.028663 -1.510309e-04
-0.028538 -1.510234e-04
-0.028413 -1.510042e-04
-0.028288 -1.509734e-04
-0.028163 -1.509310e-04
-0.028038 -1.508769e-04
-0.027913 -1.508111e-04
-0.027788 -1.507338e-04
-0.027663 -1.506448e-04
-0.027538 -1.505443e-04
-0.027413 -1.504322e-04
-0.027288 -1.503086e-04
-0.027163 -1.501735e-04
-0.027038 -1.500268e-04
-0.026913 -1.498687e-04
-0.026788 -1.496990e-04
-0.026663 -1.495180e-04
-0.026538 -1.493255e-04
-0.026413 -1.491217e-04
-0.026288 -1.489064e-04
-0.026163 -1.486799e-04
-0.026038 -1.484420e-04
-0.025913 -1.481928e-04
-0.025788 -1.479324e-04
-0.025663 -1.476607e-04
-0.025538 -1.473778e-04
-0.025413 -1.470838e-04
-0.025288 -1.467786e-04
-0.025163 -1.464623e-04
-0.025038 -1.461350e-04
-0.024913 -1.457966e-04
-0.024788 -1.454472e-04
-0.024663 -1.450869e-04
-0.024538 -1.447156e-04
-0.024413 -1.443334e-04
-0.024288 -1.439403e-04
-0.024163 -1.435365e-04
-0.024038 -1.431219e-04
-0.023913 -1.426965e-04
-0.023788 -1.422605e-04
-0.023663 -1.418138e-04
-0.023538 -1.413565e-04
-0.023413 -1.408886e-04
-0.023288 -1.404102e-04
-0.023163 -1.399213e-04
-0.023038 -1.394220e-04
-0.022913 -1.389124e-04
-0.022788 -1.383924e-04
-0.022663 -1.378621e-04
-0.022538 -1.373215e-04
-0.022413 -1.367708e-04
-0.022288 -1.362100e-04
-0.022163 -1.356391e-04
-0.022038 -1.350581e-04
-0.021913 -1.344672e-04
-0.021788 -1.338663e-04
-0.021663 -1.332556e-04
-0.021538 -1.326350e-04
-0.021413 -1.320047e-04
-0.021288 -1.313647e-04
-0.021163 -1.307151e-04
-0.021038 -1.300558e-04
-0.020913 -1.293871e-04
-0.020788 -1.287088e-04
-0.020663 -1.280212e-04
-0.020538 -1.273242e-04
-0.020413 -1.266179e-04
-0.020288 -1.259024e-04
-0.020163 -1.251777e-04
-0.020038 -1.244439e-04
-0.019913 -1.237011e-04
-0.019788 -1.229494e-04
-0.019663 -1.221887e-04
-0.019538 -1.214191e-04
-0.019413 -1.206408e-04
-0.019288 -1.198538e-04
-0.019163 -1.190582e-04
-0.019038 -1.182539e-04
-0.018913 -1.174412e-04
-0.018788 -1.166200e-04
-0.018663 -1.157905e-04
-0.018538 -1.149527e-04
-0.018413 -1.141066e-04
-0.018288 -1.132525e-04
-0.018163 -1.123902e-04
-0.018038 -1.115199e-04
-0.017913 -1.106417e-04
-0.017788 -1.097556e-04
-0.017663 -1.088618e-04
-0.017538 -1.079602e-04
-0.017413 -1.070510e-04
-0.017288 -1.061343e-04
-0.017163 -1.052101e-04
-0.017038 -1.042785e-04
-0.016913 -1.033395e-04
-0.016788 -1.023933e-04
-0.016663 -1.014399e-04
-0.016538 -1.004795e-04
-0.016413 -9.951202e-05
-0.016288 -9.853763e-05
-0.016163 -9.755639e-05
-0.016038 -9.656838e-05
-0.015913 -9.557368e-05
-0.015788 -9.457238e-05
-0.015663 -9.356456e-05
-0.015538 -9.255029e-05
-0.015413 -9.152967e-05
-0.015288 -9.050278e-05
-0.015163 -8.946970e-05
-0.015038 -8.843052e-05
-0.014913 -8.738531e-05
-0.014788 -8.633417e-05
-0.014663 -8.527719e-05
-0.014538 -8.421444e-05
-0.014413 -8.314601e-05
-0.014288 -8.207200e-05
-0.014163 -8.099248e-05
-0.014038 -7.990755e-05
-0.013913 -7.881729e-05
-0.013788 -7.772179e-05
-0.013663 -7.662114e-05
-0.013538 -7.551543e-05
-0.013413 -7.440474e-05
-0.013288 -7.328917e-05
-0.013163 -7.216881e-05
-0.013038 -7.104374e-05
-0.012913 -6.991406e-05
-0.012788 -6.877986e-05
-0.012663 -6.764122e-05
-0.012538 -6.649824e-05
-0.012413 -6.535102e-05
-0.012288 -6.419963e-05
-0.012163 -6.304418e-05
-0.012038 -6.188475e-05
-0.011913 -6.072144e-05
-0.011788 -5.955434e-05
-0.011663 -5.838355e-05
-0.011538 -5.720914e-05
-0.011413 -5.603123e-05
-0.011288 -5.484990e-05
-0.011163 -5.366525e-05
-0.011038 -5.247737e-05
-0.010913 -5.128635e-05
-0.010788 -5.009228e-05
-0.010663 -4.889527e-05
-0.010538 -4.769540e-05
-0.010413 -4.649278e-05
-0.010288 -4.528749e-05
-0.010163 -4.407963e-05
-0.010038 -4.286929e-05
-0.009913 -4.165657e-05
-0.009788 -4.044157e-05
-0.009663 -3.922438e-05
-0.009538 -3.800509e-05
-0.009413 -3.678380e-05
-0.009288 -3.556061e-05
-0.009163 -3.433561e-05
-0.009038 -3.310889e-05
-0.008913 -3.188056e-05
-0.008788 -3.065070e-05
-0.008663 -2.941942e-05
-0.008538 -2.818681e-05
-0.008413 -2.695296e-05
-0.008288 -2.571798e-05
-0.008163 -2.448195e-05
-0.008038 -2.324497e-05
-0.007913 -2.200714e-05
-0.007788 -2.076855e-05
-0.007663 -1.952930e-05
-0.007538 -1.828949e-05
-0.007413 -1.704921e-05
-0.007288 -1.580855e-05
-0.007163 -1.456762e-05
-0.007038 -1.332650e-05
-0.006913 -1.208530e-05
-0.006788 -1.084410e-05
-0.006663 -9.603007e-06
-0.006538 -8.362112e-06
-0.006413 -7.121512e-06
-0.006288 -5.881299e-06
-0.006163 -4.641571e-06
-0.006038 -3.402420e-06
-0.005913 -2.163943e-06
-0.005788 -9.262331e-07
-0.005663 3.106149e-07
-0.005538 1.546507e-06
-0.005413 2.781349e-06
-0.005288 4.015046e-06
-0.005163 5.247506e-06
-0.005038 6.478634e-06
-0.004913 7.708337e-06
-0.004788 8.936522e-06
-0.004663 1.016310e-05
-0.004538 1.138796e-05
-0.004413 1.261104e-05
-0.004288 1.383222e-05
-0.004163 1.505142e-05
-0.004038 1.626855e-05
-0.003913 1.748351e-05
-0.003788 1.869622e-05
-0.003663 1.990658e-05
-0.003538 2.111450e-05
-0.003413 2.231989e-05
-0.003288 2.352266e-05
-0.003163 2.472272e-05
-0.003038 2.591998e-05
-0.002913 2.711435e-05
-0.002788 2.830574e-05
-0.002663 2.949406e-05
-0.002538 3.067922e-05
-0.002413 3.186114e-05
-0.002288 3.303973e-05
-0.002163 3.421489e-05
-0.002038 3.538654e-05
-0.001913 3.655460e-05
-0.001788 3.771898e-05
-0.001663 3.887959e-05
-0.001538 4.003634e-05
-0.001413 4.118915e-05
-0.001288 4.233793e-05
-0.001163 4.348261e-05
-0.001038 4.462308e-05
-0.000913 4.575928e-05
-0.000788 4.689112e-05
-0.000663 4.801850e-05
-0.000538 4.914136e-05
-0.000413 5.025960e-05
-0.000288 5.137315e-05
-0.000163 5.248193e-05
-0.000038 5.358584e-05
0.000087 5.468482e-05
0.000212 5.577878e-05
0.000337 5.686764e-05
0.000462 5.795132e-05
0.000587 5.902975e-05
0.000712 6.010283e-05
0.000837 6.117051e-05
0.000962 6.223269e-05
0.001087 6.328930e-05
0.001212 6.434027e-05
0.001337 6.538552e-05
0.001462 6.642497e-05
0.001587 6.745855e-05
0.001712 6.848618e-05
0.001837 6.950779e-05
0.001962 7.052330e-05
0.002087 7.153265e-05
0.002212 7.253575e-05
0.002337 7.353255e-05
0.002462 7.452296e-05
0.002587 7.550691e-05
0.002712 7.648434e-05
0.002837 7.745518e-05
0.002962 7.841935e-05
0.003087 7.937679e-05
0.003212 8.032743e-05
0.003337 8.127120e-05
0.003462 8.220803e-05
0.003587 8.313786e-05
0.003712 8.406062e-05
0.003837 8.497625e-05
0.003962 8.588469e-05
0.004087 8.678586e-05
0.004212 8.767971e-05
0.004337 8.856616e-05
0.004462 8.944517e-05
0.004587 9.031667e-05
0.004712 9.118059e-05
0.004837 9.203689e-05
0.004962 9.288548e-05
0.005087 9.372633e-05
0.005212 9.455937e-05
0.005337 9.538454e-05
0.005462 9.620179e-05
0.005587 9.701105e-05
0.005712 9.781228e-05
0.005837 9.860541e-05
0.005962 9.939040e-05
0.006087 1.001672e-04
0.006212 1.009357e-04
0.006337 1.016959e-04
0.006462 1.024478e-04
0.006587 1.031913e-04
0.006712 1.039263e-04
0.006837 1.046528e-04
0.006962 1.053707e-04
0.007087 1.060800e-04
0.007212 1.067807e-04
0.007337 1.074727e-04
0.007462 1.081559e-04
0.007587 1.088303e-04
0.007712 1.094959e-04
0.007837 1.101526e-04
0.007962 1.108004e-04
0.008087 1.114392e-04
0.008212 1.120690e-04
0.008337 1.126898e-04
0.008462 1.133014e-04
0.008587 1.139040e-04
0.008712 1.144973e-04
0.008837 1.150815e-04
0.008962 1.156564e-04
0.009087 1.162220e-04
0.009212 1.167783e-04
0.009337 1.173252e-04
0.009462 1.178628e-04
0.009587 1.183909e-04
0.009712 1.189096e-04
0.009837 1.194187e-04
0.009962 1.199184e-04
0.010087 1.204085e-04
0.010212 1.208890e-04
0.010337 1.213599e-04
0.010462 1.218212e-04
0.010587 1.222728e-04
0.010712 1.227147e-04
0.010837 1.231469e-04
0.010962 1.235693e-04
0.011087 1.239820e-04
0.011212 1.243848e-04
0.011337 1.247779e-04
0.011462 1.251611e-04
0.011587 1.255344e-04
0.011712 1.258978e-04
0.011837 1.262514e-04
0.011962 1.265950e-04
0.012087 1.269286e-04
0.012212 1.272524e-04
0.012337 1.275661e-04
0.012462 1.278698e-04
0.012587 1.281635e-04
0.012712 1.284472e-04
0.012837 1.287209e-04
0.012962 1.289845e-04
0.013087 1.292380e-04
0.013212 1.294814e-04
0.013337 1.297148e-04
0.013462 1.299381e-04
0.013587 1.301512e-04
0.013712 1.303542e-04
0.013837 1.305472e-04
0.013962 1.307299e-04
0.014087 1.309026e-04
0.014212 1.310651e-04
0.014337 1.312174e-04
0.014462 1.313596e-04
0.014587 1.314916e-04
0.014712 1.316135e-04
0.014837 1.317252e-04
0.014962 1.318268e-04
0.015087 1.319182e-04
0.015212 1.319994e-04
0.015337 1.320705e-04
0.015462 1.321314e-04
0.015587 1.321822e-04
0.015712 1.322228e-04
0.015837 1.322532e-04
0.015962 1.322736e-04
0.016087 1.322838e-04
0.016212 1.322838e-04
0.016337 1.322738e-04
0.016462 1.322536e-04
0.016587 1.322233e-04
0.016712 1.321830e-04
0.016837 1.321325e-04
0.016962 1.320720e-04
0.017087 1.320014e-04
0.017212 1.319208e-04
0.017337 1.318302e-04
0.017462 1.317295e-04
0.017587 1.316188e-04
0.017712 1.314982e-04
0.017837 1.313675e-04
0.017962 1.312270e-04
0.018087 1.310764e-04
0.018212 1.309160e-04
0.018337 1.307457e-04
0.018462 1.305655e-04
0.018587 1.303754e-04
0.018712 1.301756e-04
0.018837 1.299659e-04
0.018962 1.297464e-04
0.019087 1.295172e-04
0.019212 1.292782e-04
0.019337 1.290295e-04
0.019462 1.287711e-04
0.019587 1.285031e-04
0.019712 1.282254e-04
0.019837 1.279381e-04
0.019962 1.276413e-04
0.020087 1.273349e-04
0.020212 1.270190e-04
0.020337 1.266936e-04
0.020462 1.263588e-04
0.020587 1.260146e-04
0.020712 1.256609e-04
0.020837 1.252980e-04
0.020962 1.249257e-04
0.021087 1.245441e-04
0.021212 1.241533e-04
0.021337 1.237532e-04
0.021462 1.233440e-04
0.021587 1.229257e-04
0.021712 1.224983e-04
0.021837 1.220618e-04
0.021962 1.216163e-04
0.022087 1.211618e-04
0.022212 1.206984e-04
0.022337 1.202261e-04
0.022462 1.197450e-04
0.022587 1.192550e-04
0.022712 1.187563e-04
0.022837 1.182489e-04
0.022962 1.177328e-04
0.023087 1.172081e-04
0.023212 1.166748e-04
0.023337 1.161329e-04
0.023462 1.155826e-04
0.023587 1.150239e-04
0.023712 1.144567e-04
0.023837 1.138812e-04
0.023962 1.132975e-04
0.024087 1.127055e-04
0.024212 1.121053e-04
0.024337 1.114969e-04
0.024462 1.108805e-04
0.024587 1.102561e-04
0.024712 1.096237e-04
0.024837 1.089833e-04
0.024962 1.083351e-04
0.025087 1.076791e-04
0.025212 1.070153e-04
0.025337 1.063439e-04
0.025462 1.056648e-04
0.025587 1.049781e-04
0.025712 1.042838e-04
0.025837 1.035821e-04
0.025962 1.028730e-04
0.026087 1.021565e-04
0.026212 1.014328e-04
0.026337 1.007018e-04
0.026462 9.996365e-05
0.026587 9.921838e-05
0.026712 9.846607e-05
0.026837 9.770678e-05
0.026962 9.694056e-05
0.027087 9.616749e-05
0.027212 9.538762e-05
0.027337 9.460102e-05
0.027462 9.380776e-05
0.027587 9.300789e-05
0.027712 9.220150e-05
0.027837 9.138863e-05
0.027962 9.056937e-05
0.028087 8.974377e-05
0.028212 8.891190e-05
0.028337 8.807384e-05
0.028462 8.722964e-05
0.028587 8.637939e-05
0.028712 8.552314e-05
0.028837 8.466097e-05
0.028962 8.379294e-05
0.029087 8.291913e-05
0.029212 8.203961e-05
0.029337 8.115445e-05
0.029462 8.026372e-05
0.029587 7.936749e-05
0.029712 7.846584e-05
0.029837 7.755883e-05
0.029962 7.664654e-05
0.030087 7.572905e-05
0.030212 7.480642e-05
0.030337 7.387873e-05
0.030462 7.294606e-05
0.030587 7.200848e-05
0.030712 7.106606e-05
0.030837 7.011888e-05
0.030962 6.916701e-05
0.031087 6.821054e-05
0.031212 6.724953e-05
0.031337 6.628407e-05
0.031462 6.531422e-05
0.031587 6.434008e-05
0.031712 6.336170e-05
0.031837 6.237918e-05
0.031962 6.139259e-05
0.032087 6.040200e-05
0.032212 5.940750e-05
0.032337 5.840916e-05
0.032462 5.740707e-05
0.032587 5.640129e-05
0.032712 5.539192e-05
0.032837 5.437903e-05
0.032962 5.336269e-05
0.033087 5.234299e-05
0.033212 5.132002e-05
0.033337 5.029384e-05
0.033462 4.926454e-05
0.033587 4.823220e-05
0.033712 4.719690e-05
0.033837 4.615872e-05
0.033962 4.511774e-05
0.034087 4.407405e-05
0.034212 4.302772e-05
0.034337 4.197884e-05
0.034462 4.092748e-05
0.034587 3.987374e-05
0.034712 3.881768e-05
0.034837 3.775940e-05
0.034962 3.669897e-05
0.035087 3.563648e-05
0.035212 3.457201e-05
0.035337 3.350563e-05
0.035462 3.243745e-05
0.035587 3.136752e-05
0.035712 3.029595e-05
0.035837 2.922281e-05
0.035962 2.814818e-05
0.036087 2.707215e-05
0.036212 2.599479e-05
0.036337 2.491620e-05
0.036462 2.383646e-05
0.036587 2.275564e-05
0.036712 2.167383e-05
0.036837 2.059111e-05
0.036962 1.950757e-05
0.037087 1.842329e-05
0.037212 1.733835e-05
0.037337 1.625283e-05
0.037462 1.516682e-05
0.037587 1.408041e-05
0.037712 1.299366e-05
0.037837 1.190667e-05
0.037962 1.081952e-05
0.038087 9.732290e-06
0.038212 8.645062e-06
0.038337 7.557921e-06
0.038462 6.470948e-06
0.038587 5.384226e-06
0.038712 4.297836e-06
0.038837 3.211862e-06
0.038962 2.126385e-06
0.039087 1.041488e-06
0.039212 -4.274876e-08
0.039337 -1.126242e-06
0.039462 -2.208911e-06
0.039587 -3.290673e-06
0.039712 -4.371448e-06
0.039837 -5.451154e-06
0.039962 -6.529710e-06
0.040087 -7.607035e-06
0.040212 -8.683049e-06
0.040337 -9.757669e-06
0.040462 -1.083082e-05
0.040587 -1.190241e-05
0.040712 -1.297237e-05
0.040837 -1.404062e-05
0.040962 -1.510707e-05
0.041087 -1.617165e-05
0.041212 -1.723428e-05
0.041337 -1.829488e-05
0.041462 -1.935336e-05
0.041587 -2.040966e-05
0.041712 -2.146369e-05
0.041837 -2.251537e-05
0.041962 -2.356463e-05
0.042087 -2.461139e-05
0.042212 -2.565557e-05
0.042337 -2.669709e-05
0.042462 -2.773587e-05
0.042587 -2.877185e-05
0.042712 -2.980494e-05
0.042837 -3.083506e-05
0.042962 -3.186215e-05
0.043087 -3.288612e-05
0.043212 -3.390690e-05
0.043337 -3.492441e-05
0.043462 -3.593859e-05
0.043587 -3.694934e-05
0.043712 -3.795661e-05
0.043837 -3.896032e-05
0.043962 -3.996039e-05
0.044087 -4.095675e-05
0.044212 -4.194932e-05
0.044337 -4.293805e-05
0.044462 -4.392284e-05
0.044587 -4.490363e-05
0.044712 -4.588036e-05
0.044837 -4.685294e-05
0.044962 -4.782131e-05
0.045087 -4.878540e-05
0.045212 -4.974513e-05
0.045337 -5.070044e-05
0.045462 -5.165126e-05
0.045587 -5.259752e-05
0.045712 -5.353915e-05
0.045837 -5.447608e-05
0.045962 -5.540825e-05
0.046087 -5.633558e-05
0.046212 -5.725802e-05
0.046337 -5.817549e-05
0.046462 -5.908793e-05
0.046587 -5.999527e-05
0.046712 -6.089745e-05
0.046837 -6.179440e-05
0.046962 -6.268607e-05
0.047087 -6.357237e-05
0.047212 -6.445326e-05
0.047337 -6.532867e-05
0.047462 -6.619854e-05
0.047587 -6.706280e-05
0.047712 -6.792139e-05
0.047837 -6.877425e-05
0.047962 -6.962133e-05
0.048087 -7.046256e-05
0.048212 -7.129788e-05
0.048337 -7.212723e-05
0.048462 -7.295056e-05
0.048587 -7.376780e-05
0.048712 -7.457890e-05
0.048837 -7.538380e-05
0.048962 -7.618245e-05
0.049087 -7.697479e-05
0.049212 -7.776076e-05
0.049337 -7.854030e-05
0.049462 -7.931338e-05
0.049587 -8.007992e-05
0.049712 -8.083988e-05
0.049837 -8.159320e-05
0.049962 -8.233983e-05
0.050087 -8.307972e-05
0.050212 -8.381282e-05
0.050337 -8.453908e-05
0.050462 -8.525844e-05
0.050587 -8.597086e-05
0.050712 -8.667629e-05
0.050837 -8.737468e-05
0.050962 -8.806598e-05
0.051087 -8.875015e-05
0.051212 -8.942713e-05
0.051337 -9.009688e-05
0.051462 -9.075937e-05
0.051587 -9.141453e-05
0.051712 -9.206233e-05
0.051837 -9.270272e-05
0.051962 -9.333566e-05
0.052087 -9.396110e-05
0.052212 -9.457902e-05
0.052337 -9.518935e-05
0.052462 -9.579207e-05
0.052587 -9.638713e-05
0.052712 -9.697449e-05
0.052837 -9.755411e-05
0.052962 -9.812596e-05
0.053087 -9.869000e-05
0.053212 -9.924618e-05
0.053337 -9.979448e-05
0.053462 -1.003349e-04
0.053587 -1.008673e-04
0.053712 -1.013917e-04
0.053837 -1.019081e-04
0.053962 -1.024164e-04
0.054087 -1.029167e-04
0.054212 -1.034088e-04
0.054337 -1.038927e-04
0.054462 -1.043685e-04
0.054587 -1.048361e-04
0.054712 -1.052954e-04
0.054837 -1.057464e-04
0.054962 -1.061891e-04
0.055087 -1.066235e-04
0.055212 -1.070495e-04
0.055337 -1.074672e-04
0.055462 -1.078764e-04
0.055587 -1.082772e-04
0.055712 -1.086695e-04
0.055837 -1.090533e-04
0.055962 -1.094287e-04
0.056087 -1.097955e-04
0.056212 -1.101537e-04
0.056337 -1.105034e-04
0.056462 -1.108445e-04
0.056587 -1.111769e-04
0.056712 -1.115008e-04
0.056837 -1.118159e-04
0.056962 -1.121224e-04
0.057087 -1.124202e-04
0.057212 -1.127094e-04
0.057337 -1.129897e-04
0.057462 -1.132614e-04
0.057587 -1.135243e-04
0.057712 -1.137784e-04
0.057837 -1.140238e-04
0.057962 -1.142604e-04
0.058087 -1.144881e-04
0.058212 -1.147071e-04
0.058337 -1.149172e-04
0.058462 -1.151185e-04
0.058587 -1.153110e-04
0.058712 -1.154946e-04
0.058837 -1.156694e-04
0.058962 -1.158352e-04
0.059087 -1.159923e-04
0.059212 -1.161404e-04
0.059337 -1.162796e-04
0.059462 -1.164100e-04