-0.102788 2.368428e-04
-0.102663 2.385814e-04
-0.102538 2.403031e-04
-0.102413 2.420077e-04
-0.102288 2.436950e-04
-0.102163 2.453650e-04
-0.102038 2.470176e-04
-0.101913 2.486526e-04
-0.101788 2.502700e-04
-0.101663 2.518695e-04
-0.101538 2.534511e-04
-0.101413 2.550147e-04
-0.101288 2.565601e-04
-0.101163 2.580873e-04
-0.101038 2.595962e-04
-0.100913 2.610865e-04
-0.100788 2.625583e-04
-0.100663 2.640113e-04
-0.100538 2.654456e-04
-0.100413 2.668610e-04
-0.100288 2.682574e-04
-0.100163 2.696346e-04
-0.100038 2.709927e-04
-0.099913 2.723314e-04
-0.099788 2.736508e-04
-0.099663 2.749506e-04
-0.099538 2.762308e-04
-0.099413 2.774913e-04
-0.099288 2.787320e-04
-0.099163 2.799528e-04
-0.099038 2.811537e-04
-0.098913 2.823344e-04
-0.098788 2.834950e-04
-0.098663 2.846354e-04
-0.098538 2.857554e-04
-0.098413 2.868550e-04
-0.098288 2.879340e-04
-0.098163 2.889925e-04
-0.098038 2.900303e-04
-0.097913 2.910473e-04
-0.097788 2.920435e-04
-0.097663 2.930187e-04
-0.097538 2.939730e-04
-0.097413 2.949062e-04
-0.097288 2.958182e-04
-0.097163 2.967090e-04
-0.097038 2.975785e-04
-0.096913 2.984267e-04
-0.096788 2.992534e-04
-0.096663 3.000586e-04
-0.096538 3.008422e-04
-0.096413 3.016042e-04
-0.096288 3.023445e-04
-0.096163 3.030630e-04
-0.096038 3.037596e-04
-0.095913 3.044344e-04
-0.095788 3.050873e-04
-0.095663 3.057181e-04
-0.095538 3.063268e-04
-0.095413 3.069135e-04
-0.095288 3.074779e-04
-0.095163 3.080201e-04
-0.095038 3.085401e-04
-0.094913 3.090377e-04
-0.094788 3.095129e-04
-0.094663 3.099657e-04
-0.094538 3.103961e-04
-0.094413 3.108039e-04
-0.094288 3.111891e-04
-0.094163 3.115518e-04
-0.094038 3.118918e-04
-0.093913 3.122092e-04
-0.093788 3.125038e-04
-0.093663 3.127756e-04
-0.093538 3.130247e-04
-0.093413 3.132510e-04
-0.093288 3.134544e-04
-0.093163 3.136349e-04
-0.093038 3.137925e-04
-0.092913 3.139271e-04
-0.092788 3.140388e-04
-0.092663 3.141276e-04
-0.092538 3.141933e-04
-0.092413 3.142359e-04
-0.092288 3.142555e-04
-0.092163 3.142521e-04
-0.092038 3.142255e-04
-0.091913 3.141759e-04
-0.091788 3.141031e-04
-0.091663 3.140072e-04
-0.091538 3.138881e-04
-0.091413 3.137459e-04
-0.091288 3.135806e-04
-0.091163 3.133920e-04
-0.091038 3.131804e-04
-0.090913 3.129455e-04
-0.090788 3.126874e-04
-0.090663 3.124062e-04
-0.090538 3.121018e-04
-0.090413 3.117742e-04
-0.090288 3.114235e-04
-0.090163 3.110496e-04
-0.090038 3.106525e-04
-0.089913 3.102323e-04
-0.089788 3.097889e-04
-0.089663 3.093224e-04
-0.089538 3.088328e-04
-0.089413 3.083201e-04
-0.089288 3.077844e-04
-0.089163 3.072255e-04
-0.089038 3.066436e-04
-0.088913 3.060387e-04
-0.088788 3.054108e-04
-0.088663 3.047599e-04
-0.088538 3.040861e-04
-0.088413 3.033894e-04
-0.088288 3.026697e-04
-0.088163 3.019272e-04
-0.088038 3.011618e-04
-0.087913 3.003737e-04
-0.087788 2.995628e-04
-0.087663 2.987292e-04
-0.087538 2.978728e-04
-0.087413 2.969939e-04
-0.087288 2.960923e-04
-0.087163 2.951682e-04
-0.087038 2.942215e-04
-0.086913 2.932524e-04
-0.086788 2.922608e-04
-0.086663 2.912469e-04
-0.086538 2.902106e-04
-0.086413 2.891521e-04
-0.086288 2.880714e-04
-0.086163 2.869685e-04
-0.086038 2.858435e-04
-0.085913 2.846964e-04
-0.085788 2.835274e-04
-0.085663 2.823364e-04
-0.085538 2.811236e-04
-0.085413 2.798890e-04
-0.085288 2.786326e-04
-0.085163 2.773546e-04
-0.085038 2.760550e-04
-0.084913 2.747339e-04
-0.084788 2.733914e-04
-0.084663 2.720274e-04
-0.084538 2.706422e-04
-0.084413 2.692358e-04
-0.084288 2.678082e-04
-0.084163 2.663596e-04
-0.084038 2.648900e-04
-0.083913 2.633995e-04
-0.083788 2.618882e-04
-0.083663 2.603562e-04
-0.083538 2.588036e-04
-0.083413 2.572305e-04
-0.083288 2.556368e-04
-0.083163 2.540229e-04
-0.083038 2.523887e-04
-0.082913 2.507343e-04
-0.082788 2.490599e-04
-0.082663 2.473655e-04
-0.082538 2.456512e-04
-0.082413 2.439172e-04
-0.082288 2.421635e-04
-0.082163 2.403903e-04
-0.082038 2.385977e-04
-0.081913 2.367857e-04
-0.081788 2.349545e-04
-0.081663 2.331042e-04
-0.081538 2.312349e-04
-0.081413 2.293467e-04
-0.081288 2.274397e-04
-0.081163 2.255141e-04
-0.081038 2.235700e-04
-0.080913 2.216075e-04
-0.080788 2.196267e-04
-0.080663 2.176277e-04
-0.080538 2.156107e-04
-0.080413 2.135758e-04
-0.080288 2.115231e-04
-0.080163 2.094528e-04
-0.080038 2.073650e-04
-0.079913 2.052597e-04
-0.079788 2.031373e-04
-0.079663 2.009977e-04
-0.079538 1.988411e-04
-0.079413 1.966677e-04
-0.079288 1.944776e-04
-0.079163 1.922710e-04
-0.079038 1.900479e-04
-0.078913 1.878086e-04
-0.078788 1.855531e-04
-0.078663 1.832817e-04
-0.078538 1.809944e-04
-0.078413 1.786915e-04
-0.078288 1.763730e-04
-0.078163 1.740392e-04
-0.078038 1.716901e-04
-0.077913 1.693260e-04
-0.077788 1.669470e-04
-0.077663 1.645532e-04
-0.077538 1.621448e-04
-0.077413 1.597220e-04
-0.077288 1.572850e-04
-0.077163 1.548338e-04
-0.077038 1.523687e-04
-0.076913 1.498898e-04
-0.076788 1.473973e-04
-0.076663 1.448914e-04
-0.076538 1.423722e-04
-0.076413 1.398399e-04
-0.076288 1.372947e-04
-0.076163 1.347367e-04
-0.076038 1.321662e-04
-0.075913 1.295832e-04
-0.075788 1.269880e-04
-0.075663 1.243808e-04
-0.075538 1.217617e-04
-0.075413 1.191310e-04
-0.075288 1.164887e-04
-0.075163 1.138351e-04
-0.075038 1.111704e-04
-0.074913 1.084947e-04
-0.074788 1.058082e-04
-0.074663 1.031112e-04
-0.074538 1.004038e-04
-0.074413 9.768620e-05
-0.074288 9.495858e-05
-0.074163 9.222115e-05
-0.074038 8.947409e-05
-0.073913 8.671760e-05
-0.073788 8.395188e-05
-0.073663 8.117712e-05
-0.073538 7.839353e-05
-0.073413 7.560129e-05
-0.073288 7.280060e-05
-0.073163 6.999168e-05
-0.073038 6.717471e-05
-0.072913 6.434990e-05
-0.072788 6.151745e-05
-0.072663 5.867757e-05
-0.072538 5.583047e-05
-0.072413 5.297634e-05
-0.072288 5.011539e-05
-0.072163 4.724784e-05
-0.072038 4.437389e-05
-0.071913 4.149374e-05
-0.071788 3.860762e-05
-0.071663 3.571573e-05
-0.071538 3.281828e-05
-0.071413 2.991548e-05
-0.071288 2.700755e-05
-0.071163 2.409470e-05
-0.071038 2.117715e-05
-0.070913 1.825511e-05
-0.070788 1.532881e-05
-0.070663 1.239844e-05
-0.070538 9.464244e-06
-0.070413 6.526426e-06
-0.070288 3.585210e-06
-0.070163 6.408141e-07
-0.070038 -2.306541e-06
-0.069913 -5.256633e-06
-0.069788 -8.209242e-06
-0.069663 -1.116414e-05
-0.069538 -1.412112e-05
-0.069413 -1.707994e-05
-0.069288 -2.004039e-05
-0.069163 -2.300223e-05
-0.069038 -2.596525e-05
-0.068913 -2.892922e-05
-0.068788 -3.189392e-05
-0.068663 -3.485911e-05
-0.068538 -3.782457e-05
-0.068413 -4.079007e-05
-0.068288 -4.375539e-05
-0.068163 -4.672029e-05
-0.068038 -4.968456e-05
-0.067913 -5.264795e-05
-0.067788 -5.561025e-05
-0.067663 -5.857121e-05
-0.067538 -6.153062e-05
-0.067413 -6.448823e-05
-0.067288 -6.744383e-05
-0.067163 -7.039718e-05
-0.067038 -7.334804e-05
-0.066913 -7.629620e-05
-0.066788 -7.924141e-05
-0.066663 -8.218344e-05
-0.066538 -8.512207e-05
-0.066413 -8.805706e-05
-0.066288 -9.098817e-05
-0.066163 -9.391519e-05
-0.066038 -9.683786e-05
-0.065913 -9.975597e-05
-0.065788 -1.026693e-04
-0.065663 -1.055776e-04
-0.065538 -1.084806e-04
-0.065413 -1.113781e-04
-0.065288 -1.142699e-04
-0.065163 -1.171557e-04
-0.065038 -1.200353e-04
-0.064913 -1.229085e-04
-0.064788 -1.257750e-04
-0.064663 -1.286346e-04
-0.064538 -1.314872e-04
-0.064413 -1.343323e-04
-0.064288 -1.371699e-04
-0.064163 -1.399996e-04
-0.064038 -1.428213e-04
-0.063913 -1.456347e-04
-0.063788 -1.484396e-04
-0.063663 -1.512357e-04
-0.063538 -1.540229e-04
-0.063413 -1.568009e-04
-0.063288 -1.595694e-04
-0.063163 -1.623282e-04
-0.063038 -1.650772e-04
-0.062913 -1.678160e-04
-0.062788 -1.705445e-04
-0.062663 -1.732624e-04
-0.062538 -1.759694e-04
-0.062413 -1.786655e-04
-0.062288 -1.813503e-04
-0.062163 -1.840235e-04
-0.062038 -1.866851e-04
-0.061913 -1.893347e-04
-0.061788 -1.919722e-04
-0.061663 -1.945972e-04
-0.061538 -1.972097e-04
-0.061413 -1.998093e-04
-0.061288 -2.023958e-04
-0.061163 -2.049691e-04
-0.061038 -2.075288e-04
-0.060913 -2.100749e-04
-0.060788 -2.126070e-04
-0.060663 -2.151249e-04
-0.060538 -2.176284e-04
-0.060413 -2.201173e-04
-0.060288 -2.225914e-04
-0.060163 -2.250505e-04
-0.060038 -2.274943e-04
-0.059913 -2.299227e-04
-0.059788 -2.323353e-04
-0.059663 -2.347321e-04
-0.059538 -2.371128e-04
-0.059413 -2.394771e-04
-0.059288 -2.418250e-04
-0.059163 -2.441561e-04
-0.059038 -2.464702e-04
-0.058913 -2.487672e-04
-0.058788 -2.510469e-04
-0.058663 -2.533089e-04
-0.058538 -2.555532e-04
-0.058413 -2.577796e-04
-0.058288 -2.599878e-04
-0.058163 -2.621775e-04
-0.058038 -2.643488e-04
-0.057913 -2.665012e-04
-0.057788 -2.686347e-04
-0.057663 -2.707490e-04
-0.057538 -2.728439e-04
-0.057413 -2.749193e-04
-0.057288 -2.769750e-04
-0.057163 -2.790107e-04
-0.057038 -2.810262e-04
-0.056913 -2.830215e-04
-0.056788 -2.849962e-04
-0.056663 -2.869502e-04
-0.056538 -2.888834e-04
-0.056413 -2.907955e-04
-0.056288 -2.926864e-04
-0.056163 -2.945558e-04
-0.056038 -2.964036e-04
-0.055913 -2.982296e-04
-0.055788 -3.000337e-04
-0.055663 -3.018156e-04
-0.055538 -3.035752e-04
-0.055413 -3.053124e-04
-0.055288 -3.070269e-04
-0.055163 -3.087185e-04
-0.055038 -3.103872e-04
-0.054913 -3.120327e-04
-0.054788 -3.136549e-04
-0.054663 -3.152536e-04
-0.054538 -3.168287e-04
-0.054413 -3.183799e-04
-0.054288 -3.199072e-04
-0.054163 -3.214104e-04
-0.054038 -3.228893e-04
-0.053913 -3.243438e-04
-0.053788 -3.257736e-04
-0.053663 -3.271788e-04
-0.053538 -3.285591e-04
-0.053413 -3.299144e-04
-0.053288 -3.312445e-04
-0.053163 -3.325493e-04
-0.053038 -3.338286e-04
-0.052913 -3.350824e-04
-0.052788 -3.363104e-04
-0.052663 -3.375126e-04
-0.052538 -3.386888e-04
-0.052413 -3.398389e-04
-0.052288 -3.409627e-04
-0.052163 -3.420602e-04
-0.052038 -3.431311e-04
-0.051913 -3.441754e-04
-0.051788 -3.451930e-04
-0.051663 -3.461837e-04
-0.051538 -3.471474e-04
-0.051413 -3.480840e-04
-0.051288 -3.489934e-04
-0.051163 -3.498755e-04
-0.051038 -3.507302e-04
-0.050913 -3.515573e-04
-0.050788 -3.523567e-04
-0.050663 -3.531284e-04
-0.050538 -3.538723e-04
-0.050413 -3.545882e-04
-0.050288 -3.552761e-04
-0.050163 -3.559358e-04
-0.050038 -3.565673e-04
-0.049913 -3.571705e-04
-0.049788 -3.577453e-04
-0.049663 -3.582916e-04
-0.049538 -3.588093e-04
-0.049413 -3.592983e-04
-0.049288 -3.597586e-04
-0.049163 -3.601901e-04
-0.049038 -3.605928e-04
-0.048913 -3.609664e-04
-0.048788 -3.613110e-04
-0.048663 -3.616266e-04
-0.048538 -3.619129e-04
-0.048413 -3.621701e-04
-0.048288 -3.623979e-04
-0.048163 -3.625964e-04
-0.048038 -3.627655e-04
-0.047913 -3.629052e-04
-0.047788 -3.630154e-04
-0.047663 -3.630960e-04
-0.047538 -3.631470e-04
-0.047413 -3.631683e-04
-0.047288 -3.631600e-04
-0.047163 -3.631220e-04
-0.047038 -3.630542e-04
-0.046913 -3.629566e-04
-0.046788 -3.628292e-04
-0.046663 -3.626719e-04
-0.046538 -3.624847e-04
-0.046413 -3.622677e-04
-0.046288 -3.620207e-04
-0.046163 -3.617437e-04
-0.046038 -3.614368e-04
-0.045913 -3.610999e-04
-0.045788 -3.607331e-04
-0.045663 -3.603362e-04
-0.045538 -3.599093e-04
-0.045413 -3.594524e-04
-0.045288 -3.589655e-04
-0.045163 -3.584486e-04
-0.045038 -3.579016e-04
-0.044913 -3.573247e-04
-0.044788 -3.567178e-04
-0.044663 -3.560808e-04
-0.044538 -3.554140e-04
-0.044413 -3.547171e-04
-0.044288 -3.539903e-04
-0.044163 -3.532336e-04
-0.044038 -3.524470e-04
-0.043913 -3.516305e-04
-0.043788 -3.507842e-04
-0.043663 -3.499081e-04
-0.043538 -3.490022e-04
-0.043413 -3.480666e-04
-0.043288 -3.471013e-04
-0.043163 -3.461063e-04
-0.043038 -3.450817e-04
-0.042913 -3.440275e-04
-0.042788 -3.429438e-04
-0.042663 -3.418307e-04
-0.042538 -3.406881e-04
-0.042413 -3.395162e-04
-0.042288 -3.383150e-04
-0.042163 -3.370846e-04
-0.042038 -3.358250e-04
-0.041913 -3.345362e-04
-0.041788 -3.332185e-04
-0.041663 -3.318718e-04
-0.041538 -3.304962e-04
-0.041413 -3.290918e-04
-0.041288 -3.276587e-04
-0.041163 -3.261969e-04
-0.041038 -3.247066e-04
-0.040913 -3.231878e-04
-0.040788 -3.216407e-04
-0.040663 -3.200652e-04
-0.040538 -3.184616e-04
-0.040413 -3.168298e-04
-0.040288 -3.151701e-04
-0.040163 -3.134825e-04
-0.040038 -3.117671e-04
-0.039913 -3.100240e-04
-0.039788 -3.082534e-04
-0.039663 -3.064553e-04
-0.039538 -3.046299e-04
-0.039413 -3.027773e-04
-0.039288 -3.008975e-04
-0.039163 -2.989908e-04
-0.039038 -2.970573e-04
-0.038913 -2.950970e-04
-0.038788 -2.931102e-04
-0.038663 -2.910969e-04
-0.038538 -2.890572e-04
-0.038413 -2.869914e-04
-0.038288 -2.848996e-04
-0.038163 -2.827819e-04
-0.038038 -2.806384e-04
-0.037913 -2.784693e-04
-0.037788 -2.762748e-04
-0.037663 -2.740550e-04
-0.037538 -2.718100e-04
-0.037413 -2.695400e-04
-0.037288 -2.672453e-04
-0.037163 -2.649258e-04
-0.037038 -2.625819e-04
-0.036913 -2.602136e-04
-0.036788 -2.578212e-04
-0.036663 -2.554048e-04
-0.036538 -2.529646e-04
-0.036413 -2.505007e-04
-0.036288 -2.480134e-04
-0.036163 -2.455028e-04
-0.036038 -2.429691e-04
-0.035913 -2.404125e-04
-0.035788 -2.378332e-04
-0.035663 -2.352314e-04
-0.035538 -2.326072e-04
-0.035413 -2.299609e-04
-0.035288 -2.272926e-04
-0.035163 -2.246026e-04
-0.035038 -2.218910e-04
-0.034913 -2.191581e-04
-0.034788 -2.164041e-04
-0.034663 -2.136291e-04
-0.034538 -2.108334e-04
-0.034413 -2.080172e-04
-0.034288 -2.051808e-04
-0.034163 -2.023242e-04
-0.034038 -1.994478e-04
-0.033913 -1.965517e-04
-0.033788 -1.936362e-04
-0.033663 -1.907016e-04
-0.033538 -1.877479e-04
-0.033413 -1.847755e-04
-0.033288 -1.817846e-04
-0.033163 -1.787755e-04
-0.033038 -1.757483e-04
-0.032913 -1.727033e-04
-0.032788 -1.696407e-04
-0.032663 -1.665608e-04
-0.032538 -1.634638e-04
-0.032413 -1.603499e-04
-0.032288 -1.572195e-04
-0.032163 -1.540727e-04
-0.032038 -1.509098e-04
-0.031913 -1.477310e-04
-0.031788 -1.445366e-04
-0.031663 -1.413269e-04
-0.031538 -1.381021e-04
-0.031413 -1.348625e-04
-0.031288 -1.316082e-04
-0.031163 -1.283397e-04
-0.031038 -1.250571e-04
-0.030913 -1.217607e-04
-0.030788 -1.184508e-04
-0.030663 -1.151277e-04
-0.030538 -1.117915e-04
-0.030413 -1.084426e-04
-0.030288 -1.050813e-04
-0.030163 -1.017078e-04
-0.030038 -9.832237e-05
-0.029913 -9.492534e-05
-0.029788 -9.151695e-05
-0.029663 -8.809749e-05
-0.029538 -8.466724e-05
-0.029413 -8.122648e-05
-0.029288 -7.777549e-05
-0.029163 -7.431456e-05
-0.029038 -7.084396e-05
-0.028913 -6.736400e-05
-0.028788 -6.387494e-05
-0.028663 -6.037709e-05
-0.028538 -5.687073e-05
-0.028413 -5.335615e-05
-0.028288 -4.983364e-05
-0.028163 -4.630351e-05
-0.028038 -4.276603e-05
-0.027913 -3.922152e-05
-0.027788 -3.567025e-05
-0.027663 -3.211254e-05
-0.027538 -2.854867e-05
-0.027413 -2.497895e-05
-0.027288 -2.140368e-05
-0.027163 -1.782316e-05
-0.027038 -1.423769e-05
-0.026913 -1.064757e-05
-0.026788 -7.053105e-06
-0.026663 -3.454602e-06
-0.026538 1.476369e-07
-0.026413 3.753305e-06
-0.026288 7.362095e-06
-0.026163 1.097370e-05
-0.026038 1.458782e-05
-0.025913 1.820413e-05
-0.025788 2.182234e-05
-0.025663 2.544212e-05
-0.025538 2.906318e-05
-0.025413 3.268520e-05
-0.025288 3.630787e-05
-0.025163 3.993088e-05
-0.025038 4.355391e-05
-0.024913 4.717666e-05
-0.024788 5.079881e-05
-0.024663 5.442004e-05
-0.024538 5.804006e-05
-0.024413 6.165853e-05
-0.024288 6.527515e-05
-0.024163 6.888960e-05
-0.024038 7.250157e-05
-0.023913 7.611075e-05
-0.023788 7.971681e-05
-0.023663 8.331945e-05
-0.023538 8.691835e-05
-0.023413 9.051319e-05
-0.023288 9.410367e-05
-0.023163 9.768945e-05
-0.023038 1.012702e-04
-0.022913 1.048457e-04
-0.022788 1.084155e-04
-0.022663 1.119794e-04
-0.022538 1.155371e-04
-0.022413 1.190881e-04
-0.022288 1.226323e-04
-0.022163 1.261692e-04
-0.022038 1.296987e-04
-0.021913 1.332203e-04
-0.021788 1.367338e-04
-0.021663 1.402388e-04
-0.021538 1.437350e-04
-0.021413 1.472222e-04
-0.021288 1.506999e-04
-0.021163 1.541680e-04
-0.021038 1.576260e-04
-0.020913 1.610737e-04
-0.020788 1.645108e-04
-0.020663 1.679369e-04
-0.020538 1.713518e-04
-0.020413 1.747551e-04
-0.020288 1.781465e-04
-0.020163 1.815258e-04
-0.020038 1.848925e-04
-0.019913 1.882465e-04
-0.019788 1.915874e-04
-0.019663 1.949149e-04
-0.019538 1.982287e-04
-0.019413 2.015284e-04
-0.019288 2.048139e-04
-0.019163 2.080848e-04
-0.019038 2.113408e-04
-0.018913 2.145815e-04
-0.018788 2.178068e-04
-0.018663 2.210162e-04
-0.018538 2.242096e-04
-0.018413 2.273866e-04
-0.018288 2.305469e-04
-0.018163 2.336902e-04
-0.018038 2.368163e-04
-0.017913 2.399248e-04
-0.017788 2.430155e-04
-0.017663 2.460881e-04
-0.017538 2.491422e-04
-0.017413 2.521776e-04
-0.017288 2.551941e-04
-0.017163 2.581913e-04
-0.017038 2.611689e-04
-0.016913 2.641267e-04
-0.016788 2.670644e-04
-0.016663 2.699818e-04
-0.016538 2.728785e-04
-0.016413 2.757542e-04
-0.016288 2.786088e-04
-0.016163 2.814419e-04
-0.016038 2.842532e-04
-0.015913 2.870426e-04
-0.015788 2.898096e-04
-0.015663 2.925542e-04
-0.015538 2.952759e-04
-0.015413 2.979746e-04
-0.015288 3.006500e-04
-0.015163 3.033018e-04
-0.015038 3.059298e-04
-0.014913 3.085337e-04
-0.014788 3.111133e-04
-0.014663 3.136683e-04
-0.014538 3.161985e-04
-0.014413 3.187036e-04
-0.014288 3.211834e-04
-0.014163 3.236376e-04
-0.014038 3.260661e-04
-0.013913 3.284685e-04
-0.013788 3.308446e-04
-0.013663 3.331943e-04
-0.013538 3.355172e-04
-0.013413 3.378131e-04
-0.013288 3.400819e-04
-0.013163 3.423232e-04
-0.013038 3.445369e-04
-0.012913 3.467228e-04
-0.012788 3.488806e-04
-0.012663 3.510101e-04
-0.012538 3.531111e-04
-0.012413 3.551833e-04
-0.012288 3.572267e-04
-0.012163 3.592409e-04
-0.012038 3.612258e-04
-0.011913 3.631812e-04
-0.011788 3.651068e-04
-0.011663 3.670025e-04
-0.011538 3.688680e-04
-0.011413 3.707033e-04
-0.011288 3.725080e-04
-0.011163 3.742821e-04
-0.011038 3.760253e-04
-0.010913 3.777374e-04
-0.010788 3.794183e-04
-0.010663 3.810677e-04
-0.010538 3.826856e-04
-0.010413 3.842717e-04
-0.010288 3.858259e-04
-0.010163 3.873480e-04
-0.010038 3.888378e-04
-0.009913 3.902953e-04
-0.009788 3.917201e-04
-0.009663 3.931122e-04
-0.009538 3.944715e-04
-0.009413 3.957977e-04
-0.009288 3.970907e-04
-0.009163 3.983504e-04
-0.009038 3.995766e-04
-0.008913 4.007693e-04
-0.008788 4.019282e-04
-0.008663 4.030532e-04
-0.008538 4.041442e-04
-0.008413 4.052012e-04
-0.008288 4.062238e-04
-0.008163 4.072121e-04
-0.008038 4.081659e-04
-0.007913 4.090851e-04
-0.007788 4.099696e-04
-0.007663 4.108193e-04
-0.007538 4.116340e-04
-0.007413 4.124138e-04
-0.007288 4.131584e-04
-0.007163 4.138677e-04
-0.007038 4.145418e-04
-0.006913 4.151804e-04
-0.006788 4.157835e-04
-0.006663 4.163511e-04
-0.006538 4.168830e-04
-0.006413 4.173791e-04
-0.006288 4.178395e-04
-0.006163 4.182639e-04
-0.006038 4.186524e-04
-0.005913 4.190049e-04
-0.005788 4.193213e-04
-0.005663 4.196015e-04
-0.005538 4.198455e-04
-0.005413 4.200533e-04
-0.005288 4.202248e-04
-0.005163 4.203600e-04
-0.005038 4.204587e-04
-0.004913 4.205211e-04
-0.004788 4.205469e-04
-0.004663 4.205363e-04
-0.004538 4.204891e-04
-0.004413 4.204054e-04
-0.004288 4.202851e-04
-0.004163 4.201282e-04
-0.004038 4.199347e-04
-0.003913 4.197045e-04
-0.003788 4.194377e-04
-0.003663 4.191343e-04
-0.003538 4.187942e-04
-0.003413 4.184175e-04
-0.003288 4.180041e-04
-0.003163 4.175540e-04
-0.003038 4.170674e-04
-0.002913 4.165441e-04
-0.002788 4.159842e-04
-0.002663 4.153877e-04
-0.002538 4.147546e-04
-0.002413 4.140850e-04
-0.002288 4.133789e-04
-0.002163 4.126364e-04
-0.002038 4.118573e-04
-0.001913 4.110419e-04
-0.001788 4.101901e-04
-0.001663 4.093020e-04
-0.001538 4.083777e-04
-0.001413 4.074171e-04
-0.001288 4.064204e-04
-0.001163 4.053876e-04
-0.001038 4.043187e-04
-0.000913 4.032139e-04
-0.000788 4.020731e-04
-0.000663 4.008966e-04
-0.000538 3.996843e-04
-0.000413 3.984363e-04
-0.000288 3.971527e-04
-0.000163 3.958336e-04
-0.000038 3.944791e-04
0.000087 3.930893e-04
0.000212 3.916642e-04
0.000337 3.902040e-04
0.000462 3.887088e-04
0.000587 3.871787e-04
0.000712 3.856137e-04
0.000837 3.840140e-04
0.000962 3.823798e-04
0.001087 3.807110e-04
0.001212 3.790079e-04
0.001337 3.772706e-04
0.001462 3.754992e-04
0.001587 3.736938e-04
0.001712 3.718546e-04
0.001837 3.699817e-04
0.001962 3.680752e-04
0.002087 3.661353e-04
0.002212 3.641621e-04
0.002337 3.621558e-04
0.002462 3.601166e-04
0.002587 3.580445e-04
0.002712 3.559398e-04
0.002837 3.538026e-04
0.002962 3.516330e-04
0.003087 3.494313e-04
0.003212 3.471977e-04
0.003337 3.449322e-04
0.003462 3.426351e-04
0.003587 3.403065e-04
0.003712 3.379466e-04
0.003837 3.355557e-04
0.003962 3.331339e-04
0.004087 3.306813e-04
0.004212 3.281983e-04
0.004337 3.256850e-04
0.004462 3.231415e-04
0.004587 3.205681e-04
0.004712 3.179651e-04
0.004837 3.153325e-04
0.004962 3.126707e-04
0.005087 3.099798e-04
0.005212 3.072600e-04
0.005337 3.045117e-04
0.005462 3.017349e-04
0.005587 2.989300e-04
0.005712 2.960971e-04
0.005837 2.932365e-04
0.005962 2.903484e-04
0.006087 2.874331e-04
0.006212 2.844908e-04
0.006337 2.815217e-04
0.006462 2.785261e-04
0.006587 2.755043e-04
0.006712 2.724564e-04
0.006837 2.693827e-04
0.006962 2.662836e-04
0.007087 2.631592e-04
0.007212 2.600098e-04
0.007337 2.568356e-04
0.007462 2.536370e-04
0.007587 2.504142e-04
0.007712 2.471675e-04
0.007837 2.438971e-04
0.007962 2.406034e-04
0.008087 2.372865e-04
0.008212 2.339468e-04
0.008337 2.305846e-04
0.008462 2.272001e-04
0.008587 2.237937e-04
0.008712 2.203655e-04
0.008837 2.169160e-04
0.008962 2.134453e-04
0.009087 2.099539e-04
0.009212 2.064419e-04
0.009337 2.029098e-04
0.009462 1.993577e-04
0.009587 1.957860e-04
0.009712 1.921950e-04
0.009837 1.885850e-04
0.009962 1.849563e-04
0.010087 1.813093e-04
0.010212 1.776441e-04
0.010337 1.739613e-04
0.010462 1.702610e-04
0.010587 1.665435e-04
0.010712 1.628093e-04
0.010837 1.590586e-04
0.010962 1.552918e-04
0.011087 1.515091e-04
0.011212 1.477109e-04
0.011337 1.438976e-04
0.011462 1.400694e-04
0.011587 1.362267e-04
0.011712 1.323699e-04
0.011837 1.284992e-04
0.011962 1.246150e-04
0.012087 1.207176e-04
0.012212 1.168074e-04
0.012337 1.128847e-04
0.012462 1.089498e-04
0.012587 1.050032e-04
0.012712 1.010451e-04
0.012837 9.707589e-05
0.012962 9.309591e-05
0.013087 8.910551e-05
0.013212 8.510504e-05
0.013337 8.109486e-05
0.013462 7.707531e-05
0.013587 7.304674e-05
0.013712 6.900952e-05
0.013837 6.496399e-05
0.013962 6.091051e-05
0.014087 5.684944e-05
0.014212 5.278114e-05
0.014337 4.870596e-05
0.014462 4.462426e-05
0.014587 4.053640e-05
0.014712 3.644275e-05
0.014837 3.234367e-05
0.014962 2.823952e-05
0.015087 2.413066e-05
0.015212 2.001745e-05
0.015337 1.590027e-05
0.015462 1.177947e-05
0.015587 7.655423e-06
0.015712 3.528495e-06
0.015837 -6.009475e-07
0.015962 -4.732538e-06
0.016087 -8.865909e-06
0.016212 -1.300069e-05
0.016337 -1.713652e-05
0.016462 -2.127302e-05
0.016587 -2.540983e-05
0.016712 -2.954657e-05
0.016837 -3.368288e-05
0.016962 -3.781839e-05
0.017087 -4.195272e-05
0.017212 -4.608552e-05
0.017337 -5.021640e-05
0.017462 -5.434499e-05
0.017587 -5.847094e-05
0.017712 -6.259385e-05
0.017837 -6.671338e-05
0.017962 -7.082914e-05
0.018087 -7.494077e-05
0.018212 -7.904789e-05
0.018337 -8.315014e-05
0.018462 -8.724715e-05
0.018587 -9.133855e-05
0.018712 -9.542396e-05
0.018837 -9.950303e-05
0.018962 -1.035754e-04
0.019087 -1.076406e-04
0.019212 -1.116985e-04
0.019337 -1.157484e-04
0.019462 -1.197902e-04
0.019587 -1.238235e-04
0.019712 -1.278478e-04
0.019837 -1.318629e-04
0.019962 -1.358683e-04
0.020087 -1.398637e-04
0.020212 -1.438487e-04
0.020337 -1.478230e-04
0.020462 -1.517862e-04
0.020587 -1.557379e-04
0.020712 -1.596778e-04
0.020837 -1.636056e-04
0.020962 -1.675208e-04
0.021087 -1.714231e-04
0.021212 -1.753122e-04
0.021337 -1.791877e-04
0.021462 -1.830492e-04
0.021587 -1.868964e-04
0.021712 -1.907289e-04
0.021837 -1.945465e-04
0.021962 -1.983486e-04
0.022087 -2.021351e-04
0.022212 -2.059055e-04
0.022337 -2.096595e-04
0.022462 -2.133968e-04
0.022587 -2.171170e-04
0.022712 -2.208197e-04
0.022837 -2.245047e-04
0.022962 -2.281716e-04
0.023087 -2.318200e-04
0.023212 -2.354496e-04
0.023337 -2.390601e-04
0.023462 -2.426512e-04
0.023587 -2.462224e-04
0.023712 -2.497736e-04
0.023837 -2.533043e-04
0.023962 -2.568143e-04
0.024087 -2.603031e-04
0.024212 -2.637706e-04
0.024337 -2.672163e-04
0.024462 -2.706400e-04
0.024587 -2.740412e-04
0.024712 -2.774198e-04
0.024837 -2.807754e-04
0.024962 -2.841077e-04
0.025087 -2.874163e-04
0.025212 -2.907011e-04
0.025337 -2.939615e-04
0.025462 -2.971975e-04
0.025587 -3.004086e-04
0.025712 -3.035945e-04
0.025837 -3.067550e-04
0.025962 -3.098898e-04
0.026087 -3.129985e-04
0.026212 -3.160809e-04
0.026337 -3.191367e-04
0.026462 -3.221656e-04
0.026587 -3.251674e-04
0.026712 -3.281416e-04
0.026837 -3.310881e-04
0.026962 -3.340066e-04
0.027087 -3.368969e-04
0.027212 -3.397585e-04
0.027337 -3.425913e-04
0.027462 -3.453950e-04
0.027587 -3.481693e-04
0.027712 -3.509140e-04
0.027837 -3.536288e-04
0.027962 -3.563135e-04
0.028087 -3.589678e-04
0.028212 -3.615914e-04
0.028337 -3.641841e-04
0.028462 -3.667456e-04
0.028587 -3.692758e-04
0.028712 -3.717743e-04
0.028837 -3.742410e-04
0.028962 -3.766756e-04
0.029087 -3.790778e-04
0.029212 -3.814474e-04
0.029337 -3.837842e-04
0.029462 -3.860881e-04
0.029587 -3.883586e-04
0.029712 -3.905958e-04
0.029837 -3.927992e-04
0.029962 -3.949687e-04
0.030087 -3.971042e-04
0.030212 -3.992054e-04
0.030337 -4.012720e-04
0.030462 -4.033039e-04
0.030587 -4.053010e-04
0.030712 -4.072629e-04
0.030837 -4.091895e-04
0.030962 -4.110807e-04
0.031087 -4.129362e-04
0.031212 -4.147558e-04
0.031337 -4.165395e-04
0.031462 -4.182869e-04
0.031587 -4.199980e-04
0.031712 -4.216725e-04
0.031837 -4.233103e-04
0.031962 -4.249113e-04
0.032087 -4.264752e-04
0.032212 -4.280019e-04
0.032337 -4.294913e-04
0.032462 -4.309433e-04
0.032587 -4.323576e-04
0.032712 -4.337341e-04
0.032837 -4.350727e-04
0.032962 -4.363733e-04
0.033087 -4.376357e-04
0.033212 -4.388598e-04
0.033337 -4.400454e-04
0.033462 -4.411925e-04
0.033587 -4.423010e-04
0.033712 -4.433706e-04
0.033837 -4.444014e-04
0.033962 -4.453931e-04
0.034087 -4.463458e-04
0.034212 -4.472592e-04
0.034337 -4.481333e-04
0.034462 -4.489680e-04
0.034587 -4.497633e-04
0.034712 -4.505189e-04
0.034837 -4.512349e-04
0.034962 -4.519111e-04
0.035087 -4.525475e-04
0.035212 -4.531441e-04
0.035337 -4.537007e-04
0.035462 -4.542172e-04
0.035587 -4.546937e-04
0.035712 -4.551300e-04
0.035837 -4.555261e-04
0.035962 -4.558820e-04
0.036087 -4.561976e-04
0.036212 -4.564728e-04
0.036337 -4.567077e-04
0.036462 -4.569021e-04
0.036587 -4.570561e-04
0.036712 -4.571697e-04
0.036837 -4.572427e-04
0.036962 -4.572752e-04
0.037087 -4.572672e-04
0.037212 -4.572186e-04
0.037337 -4.571295e-04
0.037462 -4.569997e-04
0.037587 -4.568294e-04
0.037712 -4.566186e-04
0.037837 -4.563672e-04
0.037962 -4.560752e-04
0.038087 -4.557426e-04
0.038212 -4.553696e-04
0.038337 -4.549560e-04
0.038462 -4.545019e-04
0.038587 -4.540074e-04
0.038712 -4.534724e-04
0.038837 -4.528970e-04
0.038962 -4.522813e-04
0.039087 -4.516253e-04
0.039212 -4.509290e-04
0.039337 -4.501924e-04
0.039462 -4.494157e-04
0.039587 -4.485989e-04
0.039712 -4.477420e-04
0.039837 -4.468451e-04
0.039962 -4.459083e-04
0.040087 -4.449316e-04
0.040212 -4.439152e-04
0.040337 -4.428590e-04
0.040462 -4.417633e-04
0.040587 -4.406280e-04
0.040712 -4.394532e-04
0.040837 -4.382391e-04
0.040962 -4.369858e-04
0.041087 -4.356933e-04
0.041212 -4.343617e-04
0.041337 -4.329912e-04
0.041462 -4.315818e-04
0.041587 -4.301338e-04
0.041712 -4.286471e-04
0.041837 -4.271219e-04
0.041962 -4.255584e-04
0.042087 -4.239567e-04
0.042212 -4.223168e-04
0.042337 -4.206391e-04
0.042462 -4.189234e-04
0.042587 -4.171701e-04
0.042712 -4.153793e-04
0.042837 -4.135511e-04
0.042962 -4.116856e-04
0.043087 -4.097831e-04
0.043212 -4.078437e-04
0.043337 -4.058675e-04
0.043462 -4.038547e-04
0.043587 -4.018055e-04
0.043712 -3.997201e-04
0.043837 -3.975986e-04
0.043962 -3.954412e-04
0.044087 -3.932481e-04
0.044212 -3.910196e-04
0.044337 -3.887556e-04
0.044462 -3.864566e-04
0.044587 -3.841226e-04
0.044712 -3.817539e-04
0.044837 -3.793506e-04
0.044962 -3.769130e-04
0.045087 -3.744413e-04
0.045212 -3.719357e-04
0.045337 -3.693964e-04
0.045462 -3.668237e-04
0.045587 -3.642177e-04
0.045712 -3.615786e-04
0.045837 -3.589068e-04
0.045962 -3.562024e-04
0.046087 -3.534657e-04
0.046212 -3.506969e-04
0.046337 -3.478962e-04
0.046462 -3.450639e-04
0.046587 -3.422003e-04
0.046712 -3.393055e-04
0.046837 -3.363799e-04
0.046962 -3.334237e-04
0.047087 -3.304371e-04
0.047212 -3.274205e-04
0.047337 -3.243740e-04
0.047462 -3.212979e-04
0.047587 -3.181926e-04
0.047712 -3.150583e-04
0.047837 -3.118952e-04
0.047962 -3.087036e-04
0.048087 -3.054838e-04
0.048212 -3.022362e-04
0.048337 -2.989609e-04
0.048462 -2.956583e-04
0.048587 -2.923286e-04
0.048712 -2.889722e-04
0.048837 -2.855894e-04
0.048962 -2.821803e-04
0.049087 -2.787455e-04
0.049212 -2.752850e-04
0.049337 -2.717993e-04
0.049462 -2.682887e-04
0.049587 -2.647534e-04
0.049712 -2.611939e-04
0.049837 -2.576103e-04
0.049962 -2.540030e-04
0.050087 -2.503723e-04
0.050212 -2.467186e-04
0.050337 -2.430422e-04
0.050462 -2.393434e-04
0.050587 -2.356225e-04
0.050712 -2.318798e-04
0.050837 -2.281157e-04
0.050962 -2.243306e-04
0.051087 -2.205247e-04
0.051212 -2.166984e-04
0.051337 -2.128520e-04
0.051462 -2.089859e-04
0.051587 -2.051005e-04
0.051712 -2.011959e-04
0.051837 -1.972727e-04
0.051962 -1.933312e-04
0.052087 -1.893717e-04
0.052212 -1.853945e-04
0.052337 -1.814000e-04
0.052462 -1.773886e-04
0.052587 -1.733606e-04
0.052712 -1.693165e-04
0.052837 -1.652564e-04
0.052962 -1.611809e-04
0.053087 -1.570902e-04
0.053212 -1.529848e-04
0.053337 -1.488650e-04
0.053462 -1.447311e-04
0.053587 -1.405836e-04
0.053712 -1.364228e-04
0.053837 -1.322491e-04
0.053962 -1.280628e-04
0.054087 -1.238643e-04
0.054212 -1.196541e-04
0.054337 -1.154324e-04
0.054462 -1.111997e-04
0.054587 -1.069563e-04
0.054712 -1.027026e-04
0.054837 -9.843906e-05
0.054962 -9.416596e-05
0.055087 -8.988372e-05
0.055212 -8.559272e-05
0.055337 -8.129334e-05
0.055462 -7.698598e-05
0.055587 -7.267101e-05
0.055712 -6.834882e-05
0.055837 -6.401981e-05
0.055962 -5.968435e-05
0.056087 -5.534284e-05
0.056212 -5.099567e-05
0.056337 -4.664323e-05
0.056462 -4.228590e-05
0.056587 -3.792408e-05
0.056712 -3.355816e-05
0.056837 -2.918853e-05
0.056962 -2.481558e-05
0.057087 -2.043971e-05
0.057212 -1.606131e-05
0.057337 -1.168078e-05
0.057462 -7.298500e-06
0.057587 -2.914871e-06
0.057712 1.469713e-06
0.057837 5.854859e-06
0.057962 1.024017e-05
0.058087 1.462526e-05
0.058212 1.900972e-05
0.058337 2.339317e-05
0.058462 2.777521e-05
0.058587 3.215544e-05
0.058712 3.653347e-05
0.058837 4.090891e-05
0.058962 4.528136e-05