-0.102788 1.833730e-02
-0.102663 1.803023e-02
-0.102538 1.772244e-02
-0.102413 1.741395e-02
-0.102288 1.710479e-02
-0.102163 1.679497e-02
-0.102038 1.648453e-02
-0.101913 1.617349e-02
-0.101788 1.586188e-02
-0.101663 1.554971e-02
-0.101538 1.523702e-02
-0.101413 1.492383e-02
-0.101288 1.461016e-02
-0.101163 1.429605e-02
-0.101038 1.398150e-02
-0.100913 1.366656e-02
-0.100788 1.335124e-02
-0.100663 1.303557e-02
-0.100538 1.271957e-02
-0.100413 1.240327e-02
-0.100288 1.208669e-02
-0.100163 1.176986e-02
-0.100038 1.145280e-02
-0.099913 1.113554e-02
-0.099788 1.081810e-02
-0.099663 1.050051e-02
-0.099538 1.018279e-02
-0.099413 9.864965e-03
-0.099288 9.547060e-03
-0.099163 9.229100e-03
-0.099038 8.911109e-03
-0.098913 8.593111e-03
-0.098788 8.275132e-03
-0.098663 7.957194e-03
-0.098538 7.639324e-03
-0.098413 7.321543e-03
-0.098288 7.003878e-03
-0.098163 6.686352e-03
-0.098038 6.368989e-03
-0.097913 6.051813e-03
-0.097788 5.734849e-03
-0.097663 5.418119e-03
-0.097538 5.101648e-03
-0.097413 4.785460e-03
-0.097288 4.469578e-03
-0.097163 4.154026e-03
-0.097038 3.838827e-03
-0.096913 3.524005e-03
-0.096788 3.209584e-03
-0.096663 2.895587e-03
-0.096538 2.582036e-03
-0.096413 2.268956e-03
-0.096288 1.956369e-03
-0.096163 1.644299e-03
-0.096038 1.332768e-03
-0.095913 1.021798e-03
-0.095788 7.114143e-04
-0.095663 4.016379e-04
-0.095538 9.249161e-05
-0.095413 -2.160019e-04
-0.095288 -5.238203e-04
-0.095163 -8.309412e-04
-0.095038 -1.137342e-03
-0.094913 -1.443002e-03
-0.094788 -1.747897e-03
-0.094663 -2.052007e-03
-0.094538 -2.355310e-03
-0.094413 -2.657783e-03
-0.094288 -2.959405e-03
-0.094163 -3.260155e-03
-0.094038 -3.560011e-03
-0.093913 -3.858951e-03
-0.093788 -4.156956e-03
-0.093663 -4.454004e-03
-0.093538 -4.750073e-03
-0.093413 -5.045143e-03
-0.093288 -5.339194e-03
-0.093163 -5.632204e-03
-0.093038 -5.924153e-03
-0.092913 -6.215021e-03
-0.092788 -6.504788e-03
-0.092663 -6.793434e-03
-0.092538 -7.080938e-03
-0.092413 -7.367281e-03
-0.092288 -7.652443e-03
-0.092163 -7.936405e-03
-0.092038 -8.219146e-03
-0.091913 -8.500649e-03
-0.091788 -8.780893e-03
-0.091663 -9.059859e-03
-0.091538 -9.337530e-03
-0.091413 -9.613885e-03
-0.091288 -9.888906e-03
-0.091163 -1.016258e-02
-0.091038 -1.043487e-02
-0.090913 -1.070578e-02
-0.090788 -1.097529e-02
-0.090663 -1.124337e-02
-0.090538 -1.151000e-02
-0.090413 -1.177518e-02
-0.090288 -1.203888e-02
-0.090163 -1.230108e-02
-0.090038 -1.256177e-02
-0.089913 -1.282094e-02
-0.089788 -1.307855e-02
-0.089663 -1.333461e-02
-0.089538 -1.358909e-02
-0.089413 -1.384197e-02
-0.089288 -1.409324e-02
-0.089163 -1.434288e-02
-0.089038 -1.459087e-02
-0.088913 -1.483721e-02
-0.088788 -1.508188e-02
-0.088663 -1.532485e-02
-0.088538 -1.556612e-02
-0.088413 -1.580567e-02
-0.088288 -1.604348e-02
-0.088163 -1.627954e-02
-0.088038 -1.651384e-02
-0.087913 -1.674636e-02
-0.087788 -1.697709e-02
-0.087663 -1.720600e-02
-0.087538 -1.743310e-02
-0.087413 -1.765836e-02
-0.087288 -1.788177e-02
-0.087163 -1.810333e-02
-0.087038 -1.832300e-02
-0.086913 -1.854079e-02
-0.086788 -1.875668e-02
-0.086663 -1.897065e-02
-0.086538 -1.918270e-02
-0.086413 -1.939281e-02
-0.086288 -1.960096e-02
-0.086163 -1.980716e-02
-0.086038 -2.001138e-02
-0.085913 -2.021362e-02
-0.085788 -2.041385e-02
-0.085663 -2.061208e-02
-0.085538 -2.080829e-02
-0.085413 -2.100247e-02
-0.085288 -2.119461e-02
-0.085163 -2.138470e-02
-0.085038 -2.157273e-02
-0.084913 -2.175868e-02
-0.084788 -2.194255e-02
-0.084663 -2.212433e-02
-0.084538 -2.230401e-02
-0.084413 -2.248158e-02
-0.084288 -2.265703e-02
-0.084163 -2.283035e-02
-0.084038 -2.300153e-02
-0.083913 -2.317057e-02
-0.083788 -2.333745e-02
-0.083663 -2.350217e-02
-0.083538 -2.366471e-02
-0.083413 -2.382508e-02
-0.083288 -2.398327e-02
-0.083163 -2.413926e-02
-0.083038 -2.429304e-02
-0.082913 -2.444462e-02
-0.082788 -2.459399e-02
-0.082663 -2.474113e-02
-0.082538 -2.488605e-02
-0.082413 -2.502873e-02
-0.082288 -2.516916e-02
-0.082163 -2.530736e-02
-0.082038 -2.544330e-02
-0.081913 -2.557698e-02
-0.081788 -2.570840e-02
-0.081663 -2.583755e-02
-0.081538 -2.596443e-02
-0.081413 -2.608902e-02
-0.081288 -2.621134e-02
-0.081163 -2.633137e-02
-0.081038 -2.644911e-02
-0.080913 -2.656455e-02
-0.080788 -2.667769e-02
-0.080663 -2.678853e-02
-0.080538 -2.689706e-02
-0.080413 -2.700329e-02
-0.080288 -2.710720e-02
-0.080163 -2.720880e-02
-0.080038 -2.730807e-02
-0.079913 -2.740503e-02
-0.079788 -2.749967e-02
-0.079663 -2.759198e-02
-0.079538 -2.768196e-02
-0.079413 -2.776962e-02
-0.079288 -2.785494e-02
-0.079163 -2.793794e-02
-0.079038 -2.801860e-02
-0.078913 -2.809693e-02
-0.078788 -2.817292e-02
-0.078663 -2.824658e-02
-0.078538 -2.831791e-02
-0.078413 -2.838690e-02
-0.078288 -2.845355e-02
-0.078163 -2.851787e-02
-0.078038 -2.857986e-02
-0.077913 -2.863951e-02
-0.077788 -2.869683e-02
-0.077663 -2.875182e-02
-0.077538 -2.880448e-02
-0.077413 -2.885480e-02
-0.077288 -2.890280e-02
-0.077163 -2.894847e-02
-0.077038 -2.899182e-02
-0.076913 -2.903285e-02
-0.076788 -2.907156e-02
-0.076663 -2.910794e-02
-0.076538 -2.914202e-02
-0.076413 -2.917378e-02
-0.076288 -2.920323e-02
-0.076163 -2.923038e-02
-0.076038 -2.925522e-02
-0.075913 -2.927777e-02
-0.075788 -2.929802e-02
-0.075663 -2.931597e-02
-0.075538 -2.933165e-02
-0.075413 -2.934503e-02
-0.075288 -2.935614e-02
-0.075163 -2.936498e-02
-0.075038 -2.937154e-02
-0.074913 -2.937585e-02
-0.074788 -2.937789e-02
-0.074663 -2.937768e-02
-0.074538 -2.937522e-02
-0.074413 -2.937051e-02
-0.074288 -2.936357e-02
-0.074163 -2.935440e-02
-0.074038 -2.934301e-02
-0.073913 -2.932940e-02
-0.073788 -2.931357e-02
-0.073663 -2.929554e-02
-0.073538 -2.927531e-02
-0.073413 -2.925289e-02
-0.073288 -2.922829e-02
-0.073163 -2.920150e-02
-0.073038 -2.917255e-02
-0.072913 -2.914144e-02
-0.072788 -2.910817e-02
-0.072663 -2.907276e-02
-0.072538 -2.903521e-02
-0.072413 -2.899553e-02
-0.072288 -2.895373e-02
-0.072163 -2.890981e-02
-0.072038 -2.886379e-02
-0.071913 -2.881568e-02
-0.071788 -2.876548e-02
-0.071663 -2.871320e-02
-0.071538 -2.865886e-02
-0.071413 -2.860246e-02
-0.071288 -2.854401e-02
-0.071163 -2.848352e-02
-0.071038 -2.842101e-02
-0.070913 -2.835647e-02
-0.070788 -2.828993e-02
-0.070663 -2.822139e-02
-0.070538 -2.815086e-02
-0.070413 -2.807836e-02
-0.070288 -2.800389e-02
-0.070163 -2.792746e-02
-0.070038 -2.784909e-02
-0.069913 -2.776879e-02
-0.069788 -2.768657e-02
-0.069663 -2.760244e-02
-0.069538 -2.751641e-02
-0.069413 -2.742849e-02
-0.069288 -2.733870e-02
-0.069163 -2.724705e-02
-0.069038 -2.715354e-02
-0.068913 -2.705820e-02
-0.068788 -2.696103e-02
-0.068663 -2.686205e-02
-0.068538 -2.676127e-02
-0.068413 -2.665870e-02
-0.068288 -2.655435e-02
-0.068163 -2.644825e-02
-0.068038 -2.634039e-02
-0.067913 -2.623080e-02
-0.067788 -2.611948e-02
-0.067663 -2.600646e-02
-0.067538 -2.589174e-02
-0.067413 -2.577534e-02
-0.067288 -2.565727e-02
-0.067163 -2.553755e-02
-0.067038 -2.541619e-02
-0.066913 -2.529320e-02
-0.066788 -2.516860e-02
-0.066663 -2.504240e-02
-0.066538 -2.491461e-02
-0.066413 -2.478526e-02
-0.066288 -2.465436e-02
-0.066163 -2.452191e-02
-0.066038 -2.438795e-02
-0.065913 -2.425247e-02
-0.065788 -2.411549e-02
-0.065663 -2.397704e-02
-0.065538 -2.383712e-02
-0.065413 -2.369575e-02
-0.065288 -2.355295e-02
-0.065163 -2.340873e-02
-0.065038 -2.326311e-02
-0.064913 -2.311610e-02
-0.064788 -2.296771e-02
-0.064663 -2.281797e-02
-0.064538 -2.266689e-02
-0.064413 -2.251449e-02
-0.064288 -2.236077e-02
-0.064163 -2.220577e-02
-0.064038 -2.204948e-02
-0.063913 -2.189194e-02
-0.063788 -2.173315e-02
-0.063663 -2.157314e-02
-0.063538 -2.141191e-02
-0.063413 -2.124949e-02
-0.063288 -2.108589e-02
-0.063163 -2.092113e-02
-0.063038 -2.075522e-02
-0.062913 -2.058818e-02
-0.062788 -2.042003e-02
-0.062663 -2.025079e-02
-0.062538 -2.008047e-02
-0.062413 -1.990909e-02
-0.062288 -1.973666e-02
-0.062163 -1.956320e-02
-0.062038 -1.938874e-02
-0.061913 -1.921328e-02
-0.061788 -1.903684e-02
-0.061663 -1.885944e-02
-0.061538 -1.868111e-02
-0.061413 -1.850185e-02
-0.061288 -1.832168e-02
-0.061163 -1.814062e-02
-0.061038 -1.795868e-02
-0.060913 -1.777590e-02
-0.060788 -1.759227e-02
-0.060663 -1.740782e-02
-0.060538 -1.722258e-02
-0.060413 -1.703654e-02
-0.060288 -1.684974e-02
-0.060163 -1.666219e-02
-0.060038 -1.647390e-02
-0.059913 -1.628490e-02
-0.059788 -1.609520e-02
-0.059663 -1.590482e-02
-0.059538 -1.571378e-02
-0.059413 -1.552209e-02
-0.059288 -1.532978e-02
-0.059163 -1.513686e-02
-0.059038 -1.494334e-02
-0.058913 -1.474925e-02
-0.058788 -1.455461e-02
-0.058663 -1.435943e-02
-0.058538 -1.416372e-02
-0.058413 -1.396751e-02
-0.058288 -1.377082e-02
-0.058163 -1.357366e-02
-0.058038 -1.337605e-02
-0.057913 -1.317801e-02
-0.057788 -1.297955e-02
-0.057663 -1.278070e-02
-0.057538 -1.258147e-02
-0.057413 -1.238187e-02
-0.057288 -1.218194e-02
-0.057163 -1.198167e-02
-0.057038 -1.178110e-02
-0.056913 -1.158024e-02
-0.056788 -1.137910e-02
-0.056663 -1.117771e-02
-0.056538 -1.097608e-02
-0.056413 -1.077423e-02
-0.056288 -1.057218e-02
-0.056163 -1.036994e-02
-0.056038 -1.016754e-02
-0.055913 -9.964981e-03
-0.055788 -9.762292e-03
-0.055663 -9.559487e-03
-0.055538 -9.356584e-03
-0.055413 -9.153600e-03
-0.055288 -8.950553e-03
-0.055163 -8.747460e-03
-0.055038 -8.544337e-03
-0.054913 -8.341203e-03
-0.054788 -8.138074e-03
-0.054663 -7.934967e-03
-0.054538 -7.731899e-03
-0.054413 -7.528889e-03
-0.054288 -7.325951e-03
-0.054163 -7.123104e-03
-0.054038 -6.920364e-03
-0.053913 -6.717748e-03
-0.053788 -6.515273e-03
-0.053663 -6.312956e-03
-0.053538 -6.110813e-03
-0.053413 -5.908860e-03
-0.053288 -5.707115e-03
-0.053163 -5.505594e-03
-0.053038 -5.304314e-03
-0.052913 -5.103290e-03
-0.052788 -4.902539e-03
-0.052663 -4.702077e-03
-0.052538 -4.501921e-03
-0.052413 -4.302086e-03
-0.052288 -4.102590e-03
-0.052163 -3.903447e-03
-0.052038 -3.704673e-03
-0.051913 -3.506285e-03
-0.051788 -3.308298e-03
-0.051663 -3.110728e-03
-0.051538 -2.913591e-03
-0.051413 -2.716902e-03
-0.051288 -2.520676e-03
-0.051163 -2.324929e-03
-0.051038 -2.129677e-03
-0.050913 -1.934934e-03
-0.050788 -1.740716e-03
-0.050663 -1.547038e-03
-0.050538 -1.353915e-03
-0.050413 -1.161361e-03
-0.050288 -9.693920e-04
-0.050163 -7.780221e-04
-0.050038 -5.872662e-04
-0.049913 -3.971387e-04
-0.049788 -2.076543e-04
-0.049663 -1.882710e-05
-0.049538 1.693284e-04
-0.049413 3.567982e-04
-0.049288 5.435680e-04
-0.049163 7.296239e-04
-0.049038 9.149520e-04
-0.048913 1.099538e-03
-0.048788 1.283370e-03
-0.048663 1.466432e-03
-0.048538 1.648712e-03
-0.048413 1.830196e-03
-0.048288 2.010870e-03
-0.048163 2.190723e-03
-0.048038 2.369740e-03
-0.047913 2.547908e-03
-0.047788 2.725216e-03
-0.047663 2.901649e-03
-0.047538 3.077195e-03
-0.047413 3.251842e-03
-0.047288 3.425577e-03
-0.047163 3.598389e-03
-0.047038 3.770264e-03
-0.046913 3.941190e-03
-0.046788 4.111156e-03
-0.046663 4.280150e-03
-0.046538 4.448159e-03
-0.046413 4.615173e-03
-0.046288 4.781180e-03
-0.046163 4.946167e-03
-0.046038 5.110125e-03
-0.045913 5.273042e-03
-0.045788 5.434906e-03
-0.045663 5.595707e-03
-0.045538 5.755435e-03
-0.045413 5.914077e-03
-0.045288 6.071624e-03
-0.045163 6.228066e-03
-0.045038 6.383391e-03
-0.044913 6.537590e-03
-0.044788 6.690653e-03
-0.044663 6.842569e-03
-0.044538 6.993329e-03
-0.044413 7.142924e-03
-0.044288 7.291343e-03
-0.044163 7.438577e-03
-0.044038 7.584617e-03
-0.043913 7.729454e-03
-0.043788 7.873078e-03
-0.043663 8.015481e-03
-0.043538 8.156654e-03
-0.043413 8.296588e-03
-0.043288 8.435274e-03
-0.043163 8.572705e-03
-0.043038 8.708872e-03
-0.042913 8.843767e-03
-0.042788 8.977382e-03
-0.042663 9.109709e-03
-0.042538 9.240740e-03
-0.042413 9.370468e-03
-0.042288 9.498885e-03
-0.042163 9.625984e-03
-0.042038 9.751758e-03
-0.041913 9.876200e-03
-0.041788 9.999302e-03
-0.041663 1.012106e-02
-0.041538 1.024146e-02
-0.041413 1.036051e-02
-0.041288 1.047819e-02
-0.041163 1.059449e-02
-0.041038 1.070942e-02
-0.040913 1.082297e-02
-0.040788 1.093513e-02
-0.040663 1.104589e-02
-0.040538 1.115525e-02
-0.040413 1.126320e-02
-0.040288 1.136975e-02
-0.040163 1.147487e-02
-0.040038 1.157858e-02
-0.039913 1.168086e-02
-0.039788 1.178171e-02
-0.039663 1.188112e-02
-0.039538 1.197910e-02
-0.039413 1.207563e-02
-0.039288 1.217071e-02
-0.039163 1.226434e-02
-0.039038 1.235651e-02
-0.038913 1.244722e-02
-0.038788 1.253648e-02
-0.038663 1.262426e-02
-0.038538 1.271057e-02
-0.038413 1.279542e-02
-0.038288 1.287878e-02
-0.038163 1.296067e-02
-0.038038 1.304107e-02
-0.037913 1.312000e-02
-0.037788 1.319743e-02
-0.037663 1.327338e-02
-0.037538 1.334783e-02
-0.037413 1.342080e-02
-0.037288 1.349226e-02
-0.037163 1.356224e-02
-0.037038 1.363071e-02
-0.036913 1.369768e-02
-0.036788 1.376316e-02
-0.036663 1.382713e-02
-0.036538 1.388960e-02
-0.036413 1.395057e-02
-0.036288 1.401003e-02
-0.036163 1.406799e-02
-0.036038 1.412444e-02
-0.035913 1.417939e-02
-0.035788 1.423283e-02
-0.035663 1.428476e-02
-0.035538 1.433519e-02
-0.035413 1.438412e-02
-0.035288 1.443153e-02
-0.035163 1.447745e-02
-0.035038 1.452186e-02
-0.034913 1.456477e-02
-0.034788 1.460617e-02
-0.034663 1.464608e-02
-0.034538 1.468448e-02
-0.034413 1.472139e-02
-0.034288 1.475680e-02
-0.034163 1.479072e-02
-0.034038 1.482314e-02
-0.033913 1.485407e-02
-0.033788 1.488351e-02
-0.033663 1.491146e-02
-0.033538 1.493793e-02
-0.033413 1.496292e-02
-0.033288 1.498642e-02
-0.033163 1.500845e-02
-0.033038 1.502900e-02
-0.032913 1.504808e-02
-0.032788 1.506570e-02
-0.032663 1.508185e-02
-0.032538 1.509653e-02
-0.032413 1.510976e-02
-0.032288 1.512153e-02
-0.032163 1.513185e-02
-0.032038 1.514073e-02
-0.031913 1.514816e-02
-0.031788 1.515415e-02
-0.031663 1.515870e-02
-0.031538 1.516183e-02
-0.031413 1.516353e-02
-0.031288 1.516381e-02
-0.031163 1.516267e-02
-0.031038 1.516012e-02
-0.030913 1.515616e-02
-0.030788 1.515080e-02
-0.030663 1.514404e-02
-0.030538 1.513589e-02
-0.030413 1.512635e-02
-0.030288 1.511544e-02
-0.030163 1.510315e-02
-0.030038 1.508949e-02
-0.029913 1.507446e-02
-0.029788 1.505808e-02
-0.029663 1.504035e-02
-0.029538 1.502128e-02
-0.029413 1.500086e-02
-0.029288 1.497912e-02
-0.029163 1.495604e-02
-0.029038 1.493165e-02
-0.028913 1.490595e-02
-0.028788 1.487894e-02
-0.028663 1.485063e-02
-0.028538 1.482104e-02
-0.028413 1.479016e-02
-0.028288 1.475800e-02
-0.028163 1.472457e-02
-0.028038 1.468989e-02
-0.027913 1.465394e-02
-0.027788 1.461676e-02
-0.027663 1.457833e-02
-0.027538 1.453867e-02
-0.027413 1.449779e-02
-0.027288 1.445570e-02
-0.027163 1.441240e-02
-0.027038 1.436791e-02
-0.026913 1.432222e-02
-0.026788 1.427535e-02
-0.026663 1.422731e-02
-0.026538 1.417811e-02
-0.026413 1.412775e-02
-0.026288 1.407625e-02
-0.026163 1.402361e-02
-0.026038 1.396984e-02
-0.025913 1.391495e-02
-0.025788 1.385896e-02
-0.025663 1.380186e-02
-0.025538 1.374367e-02
-0.025413 1.368440e-02
-0.025288 1.362406e-02
-0.025163 1.356266e-02
-0.025038 1.350020e-02
-0.024913 1.343670e-02
-0.024788 1.337217e-02
-0.024663 1.330662e-02
-0.024538 1.324005e-02
-0.024413 1.317248e-02
-0.024288 1.310392e-02
-0.024163 1.303437e-02
-0.024038 1.296385e-02
-0.023913 1.289237e-02
-0.023788 1.281994e-02
-0.023663 1.274657e-02
-0.023538 1.267227e-02
-0.023413 1.259704e-02
-0.023288 1.252091e-02
-0.023163 1.244388e-02
-0.023038 1.236597e-02
-0.022913 1.228717e-02
-0.022788 1.220751e-02
-0.022663 1.212700e-02
-0.022538 1.204564e-02
-0.022413 1.196345e-02
-0.022288 1.188044e-02
-0.022163 1.179662e-02
-0.022038 1.171200e-02
-0.021913 1.162659e-02
-0.021788 1.154041e-02
-0.021663 1.145346e-02
-0.021538 1.136576e-02
-0.021413 1.127732e-02
-0.021288 1.118814e-02
-0.021163 1.109825e-02
-0.021038 1.100765e-02
-0.020913 1.091636e-02
-0.020788 1.082438e-02
-0.020663 1.073173e-02
-0.020538 1.063843e-02
-0.020413 1.054447e-02
-0.020288 1.044988e-02
-0.020163 1.035466e-02
-0.020038 1.025883e-02
-0.019913 1.016240e-02
-0.019788 1.006539e-02
-0.019663 9.967793e-03
-0.019538 9.869636e-03
-0.019413 9.770927e-03
-0.019288 9.671678e-03
-0.019163 9.571901e-03
-0.019038 9.471609e-03
-0.018913 9.370814e-03
-0.018788 9.269527e-03
-0.018663 9.167762e-03
-0.018538 9.065531e-03
-0.018413 8.962845e-03
-0.018288 8.859717e-03
-0.018163 8.756160e-03
-0.018038 8.652185e-03
-0.017913 8.547805e-03
-0.017788 8.443033e-03
-0.017663 8.337881e-03
-0.017538 8.232361e-03
-0.017413 8.126485e-03
-0.017288 8.020267e-03
-0.017163 7.913718e-03
-0.017038 7.806851e-03
-0.016913 7.699677e-03
-0.016788 7.592211e-03
-0.016663 7.484464e-03
-0.016538 7.376448e-03
-0.016413 7.268175e-03
-0.016288 7.159660e-03
-0.016163 7.050913e-03
-0.016038 6.941947e-03
-0.015913 6.832774e-03
-0.015788 6.723407e-03
-0.015663 6.613859e-03
-0.015538 6.504141e-03
-0.015413 6.394267e-03
-0.015288 6.284247e-03
-0.015163 6.174096e-03
-0.015038 6.063824e-03
-0.014913 5.953445e-03
-0.014788 5.842971e-03
-0.014663 5.732413e-03
-0.014538 5.621785e-03
-0.014413 5.511098e-03
-0.014288 5.400364e-03
-0.014163 5.289597e-03
-0.014038 5.178807e-03
-0.013913 5.068008e-03
-0.013788 4.957211e-03
-0.013663 4.846428e-03
-0.013538 4.735672e-03
-0.013413 4.624954e-03
-0.013288 4.514287e-03
-0.013163 4.403683e-03
-0.013038 4.293152e-03
-0.012913 4.182709e-03
-0.012788 4.072363e-03
-0.012663 3.962127e-03
-0.012538 3.852014e-03
-0.012413 3.742034e-03
-0.012288 3.632199e-03
-0.012163 3.522522e-03
-0.012038 3.413013e-03
-0.011913 3.303685e-03
-0.011788 3.194549e-03
-0.011663 3.085616e-03
-0.011538 2.976898e-03
-0.011413 2.868406e-03
-0.011288 2.760153e-03
-0.011163 2.652148e-03
-0.011038 2.544404e-03
-0.010913 2.436931e-03
-0.010788 2.329741e-03
-0.010663 2.222845e-03
-0.010538 2.116254e-03
-0.010413 2.009979e-03
-0.010288 1.904032e-03
-0.010163 1.798422e-03
-0.010038 1.693161e-03
-0.009913 1.588259e-03
-0.009788 1.483728e-03
-0.009663 1.379578e-03
-0.009538 1.275820e-03
-0.009413 1.172464e-03
-0.009288 1.069521e-03
-0.009163 9.670006e-04
-0.009038 8.649139e-04
-0.008913 7.632711e-04
-0.008788 6.620824e-04
-0.008663 5.613579e-04
-0.008538 4.611077e-04
-0.008413 3.613419e-04
-0.008288 2.620705e-04
-0.008163 1.633032e-04
-0.008038 6.505004e-05
-0.007913 -3.267935e-05
-0.007788 -1.298753e-04
-0.007663 -2.265281e-04
-0.007538 -3.226284e-04
-0.007413 -4.181666e-04
-0.007288 -5.131335e-04
-0.007163 -6.075196e-04
-0.007038 -7.013158e-04
-0.006913 -7.945130e-04
-0.006788 -8.871020e-04
-0.006663 -9.790740e-04
-0.006538 -1.070420e-03
-0.006413 -1.161131e-03
-0.006288 -1.251199e-03
-0.006163 -1.340615e-03
-0.006038 -1.429369e-03
-0.005913 -1.517455e-03
-0.005788 -1.604863e-03
-0.005663 -1.691585e-03
-0.005538 -1.777613e-03
-0.005413 -1.862939e-03
-0.005288 -1.947555e-03
-0.005163 -2.031452e-03
-0.005038 -2.114624e-03
-0.004913 -2.197061e-03
-0.004788 -2.278757e-03
-0.004663 -2.359704e-03
-0.004538 -2.439895e-03
-0.004413 -2.519321e-03
-0.004288 -2.597976e-03
-0.004163 -2.675853e-03
-0.004038 -2.752944e-03
-0.003913 -2.829242e-03
-0.003788 -2.904741e-03
-0.003663 -2.979434e-03
-0.003538 -3.053313e-03
-0.003413 -3.126373e-03
-0.003288 -3.198606e-03
-0.003163 -3.270007e-03
-0.003038 -3.340568e-03
-0.002913 -3.410285e-03
-0.002788 -3.479150e-03
-0.002663 -3.547157e-03
-0.002538 -3.614302e-03
-0.002413 -3.680577e-03
-0.002288 -3.745977e-03
-0.002163 -3.810497e-03
-0.002038 -3.874130e-03
-0.001913 -3.936872e-03
-0.001788 -3.998718e-03
-0.001663 -4.059661e-03
-0.001538 -4.119697e-03
-0.001413 -4.178821e-03
-0.001288 -4.237028e-03
-0.001163 -4.294314e-03
-0.001038 -4.350672e-03
-0.000913 -4.406100e-03
-0.000788 -4.460592e-03
-0.000663 -4.514145e-03
-0.000538 -4.566753e-03
-0.000413 -4.618413e-03
-0.000288 -4.669121e-03
-0.000163 -4.718872e-03
-0.000038 -4.767664e-03
0.000087 -4.815491e-03
0.000212 -4.862352e-03
0.000337 -4.908241e-03
0.000462 -4.953156e-03
0.000587 -4.997094e-03
0.000712 -5.040051e-03
0.000837 -5.082024e-03
0.000962 -5.123010e-03
0.001087 -5.163007e-03
0.001212 -5.202012e-03
0.001337 -5.240022e-03
0.001462 -5.277035e-03
0.001587 -5.313047e-03
0.001712 -5.348058e-03
0.001837 -5.382065e-03
0.001962 -5.415065e-03
0.002087 -5.447057e-03
0.002212 -5.478040e-03
0.002337 -5.508010e-03
0.002462 -5.536967e-03
0.002587 -5.564909e-03
0.002712 -5.591835e-03
0.002837 -5.617744e-03
0.002962 -5.642634e-03
0.003087 -5.666504e-03
0.003212 -5.689353e-03
0.003337 -5.711182e-03
0.003462 -5.731987e-03
0.003587 -5.751771e-03
0.003712 -5.770530e-03
0.003837 -5.788267e-03
0.003962 -5.804979e-03
0.004087 -5.820667e-03
0.004212 -5.835331e-03
0.004337 -5.848971e-03
0.004462 -5.861587e-03
0.004587 -5.873180e-03
0.004712 -5.883749e-03
0.004837 -5.893296e-03
0.004962 -5.901821e-03
0.005087 -5.909324e-03
0.005212 -5.915807e-03
0.005337 -5.921270e-03
0.005462 -5.925715e-03
0.005587 -5.929143e-03
0.005712 -5.931555e-03
0.005837 -5.932952e-03
0.005962 -5.933336e-03
0.006087 -5.932708e-03
0.006212 -5.931071e-03
0.006337 -5.928426e-03
0.006462 -5.924774e-03
0.006587 -5.920119e-03
0.006712 -5.914462e-03
0.006837 -5.907806e-03
0.006962 -5.900152e-03
0.007087 -5.891503e-03
0.007212 -5.881863e-03
0.007337 -5.871232e-03
0.007462 -5.859616e-03
0.007587 -5.847015e-03
0.007712 -5.833434e-03
0.007837 -5.818875e-03
0.007962 -5.803341e-03
0.008087 -5.786836e-03
0.008212 -5.769364e-03
0.008337 -5.750927e-03
0.008462 -5.731530e-03
0.008587 -5.711175e-03
0.008712 -5.689868e-03
0.008837 -5.667612e-03
0.008962 -5.644410e-03
0.009087 -5.620267e-03
0.009212 -5.595188e-03
0.009337 -5.569176e-03
0.009462 -5.542236e-03
0.009587 -5.514372e-03
0.009712 -5.485590e-03
0.009837 -5.455893e-03
0.009962 -5.425287e-03
0.010087 -5.393777e-03
0.010212 -5.361367e-03
0.010337 -5.328062e-03
0.010462 -5.293868e-03
0.010587 -5.258791e-03
0.010712 -5.222835e-03
0.010837 -5.186005e-03
0.010962 -5.148309e-03
0.011087 -5.109750e-03
0.011212 -5.070335e-03
0.011337 -5.030070e-03
0.011462 -4.988961e-03
0.011587 -4.947013e-03
0.011712 -4.904233e-03
0.011837 -4.860626e-03
0.011962 -4.816200e-03
0.012087 -4.770961e-03
0.012212 -4.724914e-03
0.012337 -4.678067e-03
0.012462 -4.630426e-03
0.012587 -4.581998e-03
0.012712 -4.532789e-03
0.012837 -4.482807e-03
0.012962 -4.432059e-03
0.013087 -4.380550e-03
0.013212 -4.328289e-03
0.013337 -4.275283e-03
0.013462 -4.221539e-03
0.013587 -4.167064e-03
0.013712 -4.111865e-03
0.013837 -4.055951e-03
0.013962 -3.999329e-03
0.014087 -3.942006e-03
0.014212 -3.883990e-03
0.014337 -3.825288e-03
0.014462 -3.765910e-03
0.014587 -3.705862e-03
0.014712 -3.645153e-03
0.014837 -3.583790e-03
0.014962 -3.521782e-03
0.015087 -3.459137e-03
0.015212 -3.395864e-03
0.015337 -3.331969e-03
0.015462 -3.267463e-03
0.015587 -3.202354e-03
0.015712 -3.136649e-03
0.015837 -3.070358e-03
0.015962 -3.003489e-03
0.016087 -2.936051e-03
0.016212 -2.868052e-03
0.016337 -2.799503e-03
0.016462 -2.730410e-03
0.016587 -2.660784e-03
0.016712 -2.590633e-03
0.016837 -2.519966e-03
0.016962 -2.448793e-03
0.017087 -2.377122e-03
0.017212 -2.304964e-03
0.017337 -2.232326e-03
0.017462 -2.159219e-03
0.017587 -2.085651e-03
0.017712 -2.011633e-03
0.017837 -1.937173e-03
0.017962 -1.862282e-03
0.018087 -1.786968e-03
0.018212 -1.711241e-03
0.018337 -1.635112e-03
0.018462 -1.558589e-03
0.018587 -1.481682e-03
0.018712 -1.404401e-03
0.018837 -1.326756e-03
0.018962 -1.248757e-03
0.019087 -1.170414e-03
0.019212 -1.091736e-03
0.019337 -1.012733e-03
0.019462 -9.334164e-04
0.019587 -8.537949e-04
0.019712 -7.738789e-04
0.019837 -6.936785e-04
0.019962 -6.132038e-04
0.020087 -5.324651e-04
0.020212 -4.514724e-04
0.020337 -3.702360e-04
0.020462 -2.887660e-04
0.020587 -2.070728e-04
0.020712 -1.251667e-04
0.020837 -4.305782e-05
0.020962 3.924336e-05
0.021087 1.217265e-04
0.021212 2.043813e-04
0.021337 2.871974e-04
0.021462 3.701643e-04
0.021587 4.532716e-04
0.021712 5.365088e-04
0.021837 6.198656e-04
0.021962 7.033315e-04
0.022087 7.868959e-04
0.022212 8.705483e-04
0.022337 9.542784e-04
0.022462 1.038075e-03
0.022587 1.121929e-03
0.022712 1.205829e-03
0.022837 1.289764e-03
0.022962 1.373724e-03
0.023087 1.457698e-03
0.023212 1.541676e-03
0.023337 1.625647e-03
0.023462 1.709602e-03
0.023587 1.793528e-03
0.023712 1.877415e-03
0.023837 1.961254e-03
0.023962 2.045033e-03
0.024087 2.128742e-03
0.024212 2.212371e-03
0.024337 2.295908e-03
0.024462 2.379344e-03
0.024587 2.462667e-03
0.024712 2.545868e-03
0.024837 2.628935e-03
0.024962 2.711858e-03
0.025087 2.794627e-03
0.025212 2.877232e-03
0.025337 2.959661e-03
0.025462 3.041905e-03
0.025587 3.123952e-03
0.025712 3.205794e-03
0.025837 3.287418e-03
0.025962 3.368815e-03
0.026087 3.449974e-03
0.026212 3.530886e-03
0.026337 3.611539e-03
0.026462 3.691923e-03
0.026587 3.772029e-03
0.026712 3.851846e-03
0.026837 3.931364e-03
0.026962 4.010572e-03
0.027087 4.089461e-03
0.027212 4.168019e-03
0.027337 4.246239e-03
0.027462 4.324108e-03
0.027587 4.401617e-03
0.027712 4.478756e-03
0.027837 4.555516e-03
0.027962 4.631886e-03
0.028087 4.707856e-03
0.028212 4.783416e-03
0.028337 4.858557e-03
0.028462 4.933269e-03
0.028587 5.007543e-03
0.028712 5.081367e-03
0.028837 5.154733e-03
0.028962 5.227632e-03
0.029087 5.300053e-03
0.029212 5.371987e-03
0.029337 5.443424e-03
0.029462 5.514356e-03
0.029587 5.584773e-03
0.029712 5.654665e-03
0.029837 5.724023e-03
0.029962 5.792838e-03
0.030087 5.861101e-03
0.030212 5.928802e-03
0.030337 5.995933e-03
0.030462 6.062484e-03
0.030587 6.128447e-03
0.030712 6.193812e-03
0.030837 6.258572e-03
0.030962 6.322716e-03
0.031087 6.386236e-03
0.031212 6.449124e-03
0.031337 6.511371e-03
0.031462 6.572968e-03
0.031587 6.633907e-03
0.031712 6.694179e-03
0.031837 6.753777e-03
0.031962 6.812691e-03
0.032087 6.870914e-03
0.032212 6.928437e-03
0.032337 6.985252e-03
0.032462 7.041352e-03
0.032587 7.096728e-03
0.032712 7.151372e-03
0.032837 7.205276e-03
0.032962 7.258433e-03
0.033087 7.310836e-03
0.033212 7.362475e-03
0.033337 7.413345e-03
0.033462 7.463437e-03
0.033587 7.512744e-03
0.033712 7.561259e-03
0.033837 7.608974e-03
0.033962 7.655883e-03
0.034087 7.701977e-03
0.034212 7.747251e-03
0.034337 7.791698e-03
0.034462 7.835309e-03
0.034587 7.878080e-03
0.034712 7.920002e-03
0.034837 7.961070e-03
0.034962 8.001276e-03
0.035087 8.040615e-03
0.035212 8.079080e-03
0.035337 8.116665e-03
0.035462 8.153363e-03
0.035587 8.189169e-03
0.035712 8.224077e-03
0.035837 8.258080e-03
0.035962 8.291173e-03
0.036087 8.323349e-03
0.036212 8.354605e-03
0.036337 8.384932e-03
0.036462 8.414328e-03
0.036587 8.442785e-03
0.036712 8.470298e-03
0.036837 8.496863e-03
0.036962 8.522475e-03
0.037087 8.547127e-03
0.037212 8.570816e-03
0.037337 8.593537e-03
0.037462 8.615284e-03
0.037587 8.636053e-03
0.037712 8.655840e-03
0.037837 8.674640e-03
0.037962 8.692449e-03
0.038087 8.709262e-03
0.038212 8.725076e-03
0.038337 8.739886e-03
0.038462 8.753688e-03
0.038587 8.766479e-03
0.038712 8.778254e-03
0.038837 8.789011e-03
0.038962 8.798745e-03
0.039087 8.807453e-03
0.039212 8.815131e-03
0.039337 8.821777e-03
0.039462 8.827387e-03
0.039587 8.831959e-03
0.039712 8.835488e-03
0.039837 8.837973e-03
0.039962 8.839410e-03
0.040087 8.839797e-03
0.040212 8.839132e-03
0.040337 8.837412e-03
0.040462 8.834634e-03
0.040587 8.830796e-03
0.040712 8.825897e-03
0.040837 8.819934e-03
0.040962 8.812906e-03
0.041087 8.804809e-03
0.041212 8.795644e-03
0.041337 8.785408e-03
0.041462 8.774099e-03
0.041587 8.761717e-03
0.041712 8.748259e-03
0.041837 8.733726e-03
0.041962 8.718115e-03
0.042087 8.701426e-03
0.042212 8.683658e-03
0.042337 8.664810e-03
0.042462 8.644882e-03
0.042587 8.623872e-03
0.042712 8.601782e-03
0.042837 8.578609e-03
0.042962 8.554355e-03
0.043087 8.529019e-03
0.043212 8.502600e-03
0.043337 8.475100e-03
0.043462 8.446518e-03
0.043587 8.416855e-03
0.043712 8.386110e-03
0.043837 8.354286e-03
0.043962 8.321382e-03
0.044087 8.287398e-03
0.044212 8.252337e-03
0.044337 8.216199e-03
0.044462 8.178984e-03
0.044587 8.140695e-03
0.044712 8.101333e-03
0.044837 8.060898e-03
0.044962 8.019393e-03
0.045087 7.976819e-03
0.045212 7.933178e-03
0.045337 7.888471e-03
0.045462 7.842702e-03
0.045587 7.795870e-03
0.045712 7.747980e-03
0.045837 7.699033e-03
0.045962 7.649032e-03
0.046087 7.597979e-03
0.046212 7.545876e-03
0.046337 7.492727e-03
0.046462 7.438534e-03
0.046587 7.383300e-03
0.046712 7.327028e-03
0.046837 7.269722e-03
0.046962 7.211384e-03
0.047087 7.152018e-03
0.047212 7.091627e-03
0.047337 7.030215e-03
0.047462 6.967786e-03
0.047587 6.904343e-03
0.047712 6.839891e-03
0.047837 6.774433e-03
0.047962 6.707973e-03
0.048087 6.640515e-03
0.048212 6.572064e-03
0.048337 6.502625e-03
0.048462 6.432201e-03
0.048587 6.360797e-03
0.048712 6.288418e-03
0.048837 6.215069e-03
0.048962 6.140755e-03
0.049087 6.065481e-03
0.049212 5.989251e-03
0.049337 5.912071e-03
0.049462 5.833947e-03
0.049587 5.754883e-03
0.049712 5.674886e-03
0.049837 5.593960e-03
0.049962 5.512112e-03
0.050087 5.429347e-03
0.050212 5.345672e-03
0.050337 5.261092e-03
0.050462 5.175613e-03
0.050587 5.089241e-03
0.050712 5.001984e-03
0.050837 4.913846e-03
0.050962 4.824835e-03
0.051087 4.734958e-03
0.051212 4.644220e-03
0.051337 4.552629e-03
0.051462 4.460191e-03
0.051587 4.366914e-03
0.051712 4.272804e-03
0.051837 4.177869e-03
0.051962 4.082116e-03
0.052087 3.985551e-03
0.052212 3.888183e-03
0.052337 3.790019e-03
0.052462 3.691067e-03
0.052587 3.591334e-03
0.052712 3.490827e-03
0.052837 3.389555e-03
0.052962 3.287526e-03
0.053087 3.184747e-03
0.053212 3.081228e-03
0.053337 2.976974e-03
0.053462 2.871996e-03
0.053587 2.766302e-03
0.053712 2.659899e-03
0.053837 2.552796e-03
0.053962 2.445003e-03
0.054087 2.336526e-03
0.054212 2.227376e-03
0.054337 2.117562e-03
0.054462 2.007090e-03
0.054587 1.895972e-03
0.054712 1.784216e-03
0.054837 1.671831e-03
0.054962 1.558825e-03
0.055087 1.445210e-03
0.055212 1.330992e-03
0.055337 1.216184e-03
0.055462 1.100792e-03
0.055587 9.848279e-04
0.055712 8.683004e-04
0.055837 7.512193e-04
0.055962 6.335944e-04
0.056087 5.154354e-04
0.056212 3.967522e-04
0.056337 2.775548e-04
0.056462 1.578531e-04
0.056587 3.765724e-05
0.056712 -8.302265e-05
0.056837 -2.041764e-04
0.056962 -3.257937e-04
0.057087 -4.478644e-04
0.057212 -5.703779e-04
0.057337 -6.933240e-04
0.057462 -8.166921e-04
0.057587 -9.404716e-04
0.057712 -1.064652e-03
0.057837 -1.189223e-03
0.057962 -1.314173e-03
0.058087 -1.439492e-03
0.058212 -1.565168e-03
0.058337 -1.691192e-03
0.058462 -1.817552e-03
0.058587 -1.944238e-03
0.058712 -2.071237e-03
0.058837 -2.198540e-03
0.058962 -2.326134e-03
0.059087 -2.454010e-03
0.059212 -2.582155e-03
0.059337 -2.710559e-03