-0.102788 2.279735e-04
-0.102663 2.260653e-04
-0.102538 2.241379e-04
-0.102413 2.221914e-04
-0.102288 2.202260e-04
-0.102163 2.182418e-04
-0.102038 2.162390e-04
-0.101913 2.142178e-04
-0.101788 2.121783e-04
-0.101663 2.101207e-04
-0.101538 2.080452e-04
-0.101413 2.059520e-04
-0.101288 2.038412e-04
-0.101163 2.017129e-04
-0.101038 1.995674e-04
-0.100913 1.974049e-04
-0.100788 1.952255e-04
-0.100663 1.930294e-04
-0.100538 1.908168e-04
-0.100413 1.885878e-04
-0.100288 1.863427e-04
-0.100163 1.840817e-04
-0.100038 1.818048e-04
-0.099913 1.795124e-04
-0.099788 1.772046e-04
-0.099663 1.748815e-04
-0.099538 1.725435e-04
-0.099413 1.701906e-04
-0.099288 1.678231e-04
-0.099163 1.654412e-04
-0.099038 1.630450e-04
-0.098913 1.606348e-04
-0.098788 1.582108e-04
-0.098663 1.557731e-04
-0.098538 1.533220e-04
-0.098413 1.508576e-04
-0.098288 1.483802e-04
-0.098163 1.458900e-04
-0.098038 1.433872e-04
-0.097913 1.408720e-04
-0.097788 1.383446e-04
-0.097663 1.358052e-04
-0.097538 1.332540e-04
-0.097413 1.306913e-04
-0.097288 1.281171e-04
-0.097163 1.255319e-04
-0.097038 1.229357e-04
-0.096913 1.203288e-04
-0.096788 1.177115e-04
-0.096663 1.150838e-04
-0.096538 1.124461e-04
-0.096413 1.097985e-04
-0.096288 1.071414e-04
-0.096163 1.044748e-04
-0.096038 1.017991e-04
-0.095913 9.911436e-05
-0.095788 9.642093e-05
-0.095663 9.371900e-05
-0.095538 9.100879e-05
-0.095413 8.829052e-05
-0.095288 8.556442e-05
-0.095163 8.283071e-05
-0.095038 8.008964e-05
-0.094913 7.734142e-05
-0.094788 7.458628e-05
-0.094663 7.182445e-05
-0.094538 6.905616e-05
-0.094413 6.628165e-05
-0.094288 6.350115e-05
-0.094163 6.071488e-05
-0.094038 5.792307e-05
-0.093913 5.512598e-05
-0.093788 5.232381e-05
-0.093663 4.951682e-05
-0.093538 4.670523e-05
-0.093413 4.388928e-05
-0.093288 4.106920e-05
-0.093163 3.824523e-05
-0.093038 3.541761e-05
-0.092913 3.258657e-05
-0.092788 2.975234e-05
-0.092663 2.691517e-05
-0.092538 2.407530e-05
-0.092413 2.123295e-05
-0.092288 1.838838e-05
-0.092163 1.554181e-05
-0.092038 1.269348e-05
-0.091913 9.843633e-06
-0.091788 6.992510e-06
-0.091663 4.140347e-06
-0.091538 1.287382e-06
-0.091413 -1.566144e-06
-0.091288 -4.419993e-06
-0.091163 -7.273925e-06
-0.091038 -1.012770e-05
-0.090913 -1.298108e-05
-0.090788 -1.583383e-05
-0.090663 -1.868570e-05
-0.090538 -2.153646e-05
-0.090413 -2.438587e-05
-0.090288 -2.723368e-05
-0.090163 -3.007967e-05
-0.090038 -3.292358e-05
-0.089913 -3.576519e-05
-0.089788 -3.860424e-05
-0.089663 -4.144051e-05
-0.089538 -4.427376e-05
-0.089413 -4.710374e-05
-0.089288 -4.993022e-05
-0.089163 -5.275296e-05
-0.089038 -5.557173e-05
-0.088913 -5.838628e-05
-0.088788 -6.119637e-05
-0.088663 -6.400178e-05
-0.088538 -6.680227e-05
-0.088413 -6.959759e-05
-0.088288 -7.238752e-05
-0.088163 -7.517182e-05
-0.088038 -7.795025e-05
-0.087913 -8.072258e-05
-0.087788 -8.348858e-05
-0.087663 -8.624801e-05
-0.087538 -8.900063e-05
-0.087413 -9.174623e-05
-0.087288 -9.448456e-05
-0.087163 -9.721539e-05
-0.087038 -9.993849e-05
-0.086913 -1.026536e-04
-0.086788 -1.053606e-04
-0.086663 -1.080591e-04
-0.086538 -1.107490e-04
-0.086413 -1.134300e-04
-0.086288 -1.161020e-04
-0.086163 -1.187646e-04
-0.086038 -1.214176e-04
-0.085913 -1.240609e-04
-0.085788 -1.266942e-04
-0.085663 -1.293172e-04
-0.085538 -1.319298e-04
-0.085413 -1.345317e-04
-0.085288 -1.371228e-04
-0.085163 -1.397027e-04
-0.085038 -1.422713e-04
-0.084913 -1.448284e-04
-0.084788 -1.473737e-04
-0.084663 -1.499070e-04
-0.084538 -1.524281e-04
-0.084413 -1.549368e-04
-0.084288 -1.574329e-04
-0.084163 -1.599162e-04
-0.084038 -1.623864e-04
-0.083913 -1.648433e-04
-0.083788 -1.672868e-04
-0.083663 -1.697166e-04
-0.083538 -1.721326e-04
-0.083413 -1.745344e-04
-0.083288 -1.769220e-04
-0.083163 -1.792950e-04
-0.083038 -1.816534e-04
-0.082913 -1.839968e-04
-0.082788 -1.863252e-04
-0.082663 -1.886383e-04
-0.082538 -1.909358e-04
-0.082413 -1.932177e-04
-0.082288 -1.954837e-04
-0.082163 -1.977336e-04
-0.082038 -1.999672e-04
-0.081913 -2.021844e-04
-0.081788 -2.043849e-04
-0.081663 -2.065686e-04
-0.081538 -2.087352e-04
-0.081413 -2.108847e-04
-0.081288 -2.130167e-04
-0.081163 -2.151311e-04
-0.081038 -2.172278e-04
-0.080913 -2.193066e-04
-0.080788 -2.213672e-04
-0.080663 -2.234095e-04
-0.080538 -2.254334e-04
-0.080413 -2.274386e-04
-0.080288 -2.294249e-04
-0.080163 -2.313923e-04
-0.080038 -2.333406e-04
-0.079913 -2.352695e-04
-0.079788 -2.371789e-04
-0.079663 -2.390686e-04
-0.079538 -2.409386e-04
-0.079413 -2.427885e-04
-0.079288 -2.446183e-04
-0.079163 -2.464278e-04
-0.079038 -2.482169e-04
-0.078913 -2.499853e-04
-0.078788 -2.517330e-04
-0.078663 -2.534598e-04
-0.078538 -2.551655e-04
-0.078413 -2.568500e-04
-0.078288 -2.585132e-04
-0.078163 -2.601549e-04
-0.078038 -2.617749e-04
-0.077913 -2.633731e-04
-0.077788 -2.649495e-04
-0.077663 -2.665037e-04
-0.077538 -2.680358e-04
-0.077413 -2.695456e-04
-0.077288 -2.710329e-04
-0.077163 -2.724976e-04
-0.077038 -2.739396e-04
-0.076913 -2.753588e-04
-0.076788 -2.767551e-04
-0.076663 -2.781282e-04
-0.076538 -2.794782e-04
-0.076413 -2.808048e-04
-0.076288 -2.821081e-04
-0.076163 -2.833877e-04
-0.076038 -2.846438e-04
-0.075913 -2.858760e-04
-0.075788 -2.870844e-04
-0.075663 -2.882688e-04
-0.075538 -2.894292e-04
-0.075413 -2.905654e-04
-0.075288 -2.916772e-04
-0.075163 -2.927648e-04
-0.075038 -2.938278e-04
-0.074913 -2.948663e-04
-0.074788 -2.958801e-04
-0.074663 -2.968692e-04
-0.074538 -2.978334e-04
-0.074413 -2.987728e-04
-0.074288 -2.996871e-04
-0.074163 -3.005764e-04
-0.074038 -3.014405e-04
-0.073913 -3.022794e-04
-0.073788 -3.030930e-04
-0.073663 -3.038812e-04
-0.073538 -3.046440e-04
-0.073413 -3.053813e-04
-0.073288 -3.060929e-04
-0.073163 -3.067790e-04
-0.073038 -3.074393e-04
-0.072913 -3.080739e-04
-0.072788 -3.086827e-04
-0.072663 -3.092656e-04
-0.072538 -3.098226e-04
-0.072413 -3.103536e-04
-0.072288 -3.108586e-04
-0.072163 -3.113376e-04
-0.072038 -3.117904e-04
-0.071913 -3.122171e-04
-0.071788 -3.126176e-04
-0.071663 -3.129919e-04
-0.071538 -3.133399e-04
-0.071413 -3.136617e-04
-0.071288 -3.139571e-04
-0.071163 -3.142262e-04
-0.071038 -3.144690e-04
-0.070913 -3.146853e-04
-0.070788 -3.148753e-04
-0.070663 -3.150388e-04
-0.070538 -3.151758e-04
-0.070413 -3.152865e-04
-0.070288 -3.153706e-04
-0.070163 -3.154283e-04
-0.070038 -3.154595e-04
-0.069913 -3.154642e-04
-0.069788 -3.154424e-04
-0.069663 -3.153941e-04
-0.069538 -3.153193e-04
-0.069413 -3.152181e-04
-0.069288 -3.150904e-04
-0.069163 -3.149362e-04
-0.069038 -3.147556e-04
-0.068913 -3.145485e-04
-0.068788 -3.143150e-04
-0.068663 -3.140551e-04
-0.068538 -3.137688e-04
-0.068413 -3.134561e-04
-0.068288 -3.131171e-04
-0.068163 -3.127518e-04
-0.068038 -3.123602e-04
-0.067913 -3.119424e-04
-0.067788 -3.114984e-04
-0.067663 -3.110281e-04
-0.067538 -3.105318e-04
-0.067413 -3.100093e-04
-0.067288 -3.094608e-04
-0.067163 -3.088862e-04
-0.067038 -3.082857e-04
-0.066913 -3.076593e-04
-0.066788 -3.070070e-04
-0.066663 -3.063290e-04
-0.066538 -3.056251e-04
-0.066413 -3.048956e-04
-0.066288 -3.041404e-04
-0.066163 -3.033597e-04
-0.066038 -3.025534e-04
-0.065913 -3.017217e-04
-0.065788 -3.008647e-04
-0.065663 -2.999823e-04
-0.065538 -2.990748e-04
-0.065413 -2.981420e-04
-0.065288 -2.971842e-04
-0.065163 -2.962015e-04
-0.065038 -2.951938e-04
-0.064913 -2.941612e-04
-0.064788 -2.931040e-04
-0.064663 -2.920220e-04
-0.064538 -2.909156e-04
-0.064413 -2.897846e-04
-0.064288 -2.886293e-04
-0.064163 -2.874497e-04
-0.064038 -2.862459e-04
-0.063913 -2.850181e-04
-0.063788 -2.837662e-04
-0.063663 -2.824905e-04
-0.063538 -2.811910e-04
-0.063413 -2.798679e-04
-0.063288 -2.785212e-04
-0.063163 -2.771511e-04
-0.063038 -2.757577e-04
-0.062913 -2.743410e-04
-0.062788 -2.729013e-04
-0.062663 -2.714386e-04
-0.062538 -2.699531e-04
-0.062413 -2.684448e-04
-0.062288 -2.669140e-04
-0.062163 -2.653606e-04
-0.062038 -2.637850e-04
-0.061913 -2.621871e-04
-0.061788 -2.605672e-04
-0.061663 -2.589253e-04
-0.061538 -2.572616e-04
-0.061413 -2.555763e-04
-0.061288 -2.538694e-04
-0.061163 -2.521412e-04
-0.061038 -2.503917e-04
-0.060913 -2.486211e-04
-0.060788 -2.468296e-04
-0.060663 -2.450173e-04
-0.060538 -2.431844e-04
-0.060413 -2.413309e-04
-0.060288 -2.394571e-04
-0.060163 -2.375632e-04
-0.060038 -2.356492e-04
-0.059913 -2.337153e-04
-0.059788 -2.317617e-04
-0.059663 -2.297886e-04
-0.059538 -2.277961e-04
-0.059413 -2.257844e-04
-0.059288 -2.237537e-04
-0.059163 -2.217040e-04
-0.059038 -2.196357e-04
-0.058913 -2.175488e-04
-0.058788 -2.154435e-04
-0.058663 -2.133201e-04
-0.058538 -2.111786e-04
-0.058413 -2.090193e-04
-0.058288 -2.068423e-04
-0.058163 -2.046478e-04
-0.058038 -2.024361e-04
-0.057913 -2.002072e-04
-0.057788 -1.979614e-04
-0.057663 -1.956988e-04
-0.057538 -1.934197e-04
-0.057413 -1.911242e-04
-0.057288 -1.888125e-04
-0.057163 -1.864848e-04
-0.057038 -1.841414e-04
-0.056913 -1.817823e-04
-0.056788 -1.794078e-04
-0.056663 -1.770180e-04
-0.056538 -1.746133e-04
-0.056413 -1.721937e-04
-0.056288 -1.697595e-04
-0.056163 -1.673108e-04
-0.056038 -1.648480e-04
-0.055913 -1.623711e-04
-0.055788 -1.598803e-04
-0.055663 -1.573760e-04
-0.055538 -1.548583e-04
-0.055413 -1.523273e-04
-0.055288 -1.497834e-04
-0.055163 -1.472266e-04
-0.055038 -1.446573e-04
-0.054913 -1.420756e-04
-0.054788 -1.394818e-04
-0.054663 -1.368760e-04
-0.054538 -1.342585e-04
-0.054413 -1.316294e-04
-0.054288 -1.289891e-04
-0.054163 -1.263377e-04
-0.054038 -1.236754e-04
-0.053913 -1.210024e-04
-0.053788 -1.183190e-04
-0.053663 -1.156254e-04
-0.053538 -1.129218e-04
-0.053413 -1.102084e-04
-0.053288 -1.074855e-04
-0.053163 -1.047533e-04
-0.053038 -1.020119e-04
-0.052913 -9.926164e-05
-0.052788 -9.650273e-05
-0.052663 -9.373538e-05
-0.052538 -9.095982e-05
-0.052413 -8.817629e-05
-0.052288 -8.538499e-05
-0.052163 -8.258617e-05
-0.052038 -7.978004e-05
-0.051913 -7.696685e-05
-0.051788 -7.414680e-05
-0.051663 -7.132015e-05
-0.051538 -6.848711e-05
-0.051413 -6.564792e-05
-0.051288 -6.280281e-05
-0.051163 -5.995201e-05
-0.051038 -5.709575e-05
-0.050913 -5.423426e-05
-0.050788 -5.136778e-05
-0.050663 -4.849655e-05
-0.050538 -4.562078e-05
-0.050413 -4.274073e-05
-0.050288 -3.985662e-05
-0.050163 -3.696868e-05
-0.050038 -3.407716e-05
-0.049913 -3.118228e-05
-0.049788 -2.828429e-05
-0.049663 -2.538341e-05
-0.049538 -2.247989e-05
-0.049413 -1.957397e-05
-0.049288 -1.666587e-05
-0.049163 -1.375583e-05
-0.049038 -1.084409e-05
-0.048913 -7.930896e-06
-0.048788 -5.016474e-06
-0.048663 -2.101064e-06
-0.048538 8.150953e-07
-0.048413 3.731767e-06
-0.048288 6.648715e-06
-0.048163 9.565699e-06
-0.048038 1.248248e-05
-0.047913 1.539883e-05
-0.047788 1.831450e-05
-0.047663 2.122926e-05
-0.047538 2.414286e-05
-0.047413 2.705508e-05
-0.047288 2.996567e-05
-0.047163 3.287440e-05
-0.047038 3.578103e-05
-0.046913 3.868531e-05
-0.046788 4.158703e-05
-0.046663 4.448592e-05
-0.046538 4.738177e-05
-0.046413 5.027433e-05
-0.046288 5.316337e-05
-0.046163 5.604865e-05
-0.046038 5.892993e-05
-0.045913 6.180698e-05
-0.045788 6.467957e-05
-0.045663 6.754745e-05
-0.045538 7.041039e-05
-0.045413 7.326816e-05
-0.045288 7.612052e-05
-0.045163 7.896724e-05
-0.045038 8.180808e-05
-0.044913 8.464282e-05
-0.044788 8.747121e-05
-0.044663 9.029302e-05
-0.044538 9.310803e-05
-0.044413 9.591600e-05
-0.044288 9.871670e-05
-0.044163 1.015099e-04
-0.044038 1.042954e-04
-0.043913 1.070729e-04
-0.043788 1.098422e-04
-0.043663 1.126030e-04
-0.043538 1.153553e-04
-0.043413 1.180986e-04
-0.043288 1.208329e-04
-0.043163 1.235578e-04
-0.043038 1.262732e-04
-0.042913 1.289787e-04
-0.042788 1.316743e-04
-0.042663 1.343596e-04
-0.042538 1.370345e-04
-0.042413 1.396987e-04
-0.042288 1.423520e-04
-0.042163 1.449942e-04
-0.042038 1.476250e-04
-0.041913 1.502443e-04
-0.041788 1.528518e-04
-0.041663 1.554472e-04
-0.041538 1.580305e-04
-0.041413 1.606013e-04
-0.041288 1.631595e-04
-0.041163 1.657048e-04
-0.041038 1.682370e-04
-0.040913 1.707559e-04
-0.040788 1.732613e-04
-0.040663 1.757530e-04
-0.040538 1.782307e-04
-0.040413 1.806944e-04
-0.040288 1.831436e-04
-0.040163 1.855783e-04
-0.040038 1.879983e-04
-0.039913 1.904032e-04
-0.039788 1.927930e-04
-0.039663 1.951674e-04
-0.039538 1.975263e-04
-0.039413 1.998693e-04
-0.039288 2.021964e-04
-0.039163 2.045073e-04
-0.039038 2.068018e-04
-0.038913 2.090797e-04
-0.038788 2.113408e-04
-0.038663 2.135850e-04
-0.038538 2.158120e-04
-0.038413 2.180217e-04
-0.038288 2.202138e-04
-0.038163 2.223882e-04
-0.038038 2.245446e-04
-0.037913 2.266830e-04
-0.037788 2.288030e-04
-0.037663 2.309045e-04
-0.037538 2.329874e-04
-0.037413 2.350515e-04
-0.037288 2.370965e-04
-0.037163 2.391223e-04
-0.037038 2.411287e-04
-0.036913 2.431155e-04
-0.036788 2.450826e-04
-0.036663 2.470298e-04
-0.036538 2.489569e-04
-0.036413 2.508638e-04
-0.036288 2.527502e-04
-0.036163 2.546161e-04
-0.036038 2.564612e-04
-0.035913 2.582853e-04
-0.035788 2.600884e-04
-0.035663 2.618702e-04
-0.035538 2.636306e-04
-0.035413 2.653695e-04
-0.035288 2.670866e-04
-0.035163 2.687819e-04
-0.035038 2.704551e-04
-0.034913 2.721062e-04
-0.034788 2.737349e-04
-0.034663 2.753411e-04
-0.034538 2.769247e-04
-0.034413 2.784856e-04
-0.034288 2.800235e-04
-0.034163 2.815384e-04
-0.034038 2.830301e-04
-0.033913 2.844984e-04
-0.033788 2.859433e-04
-0.033663 2.873646e-04
-0.033538 2.887621e-04
-0.033413 2.901358e-04
-0.033288 2.914855e-04
-0.033163 2.928111e-04
-0.033038 2.941125e-04
-0.032913 2.953894e-04
-0.032788 2.966419e-04
-0.032663 2.978698e-04
-0.032538 2.990730e-04
-0.032413 3.002514e-04
-0.032288 3.014048e-04
-0.032163 3.025331e-04
-0.032038 3.036363e-04
-0.031913 3.047142e-04
-0.031788 3.057667e-04
-0.031663 3.067938e-04
-0.031538 3.077952e-04
-0.031413 3.087710e-04
-0.031288 3.097211e-04
-0.031163 3.106452e-04
-0.031038 3.115435e-04
-0.030913 3.124156e-04
-0.030788 3.132617e-04
-0.030663 3.140815e-04
-0.030538 3.148750e-04
-0.030413 3.156421e-04
-0.030288 3.163828e-04
-0.030163 3.170969e-04
-0.030038 3.177845e-04
-0.029913 3.184453e-04
-0.029788 3.190794e-04
-0.029663 3.196867e-04
-0.029538 3.202671e-04
-0.029413 3.208206e-04
-0.029288 3.213471e-04
-0.029163 3.218465e-04
-0.029038 3.223187e-04
-0.028913 3.227639e-04
-0.028788 3.231817e-04
-0.028663 3.235724e-04
-0.028538 3.239357e-04
-0.028413 3.242716e-04
-0.028288 3.245802e-04
-0.028163 3.248613e-04
-0.028038 3.251150e-04
-0.027913 3.253411e-04
-0.027788 3.255397e-04
-0.027663 3.257108e-04
-0.027538 3.258542e-04
-0.027413 3.259701e-04
-0.027288 3.260583e-04
-0.027163 3.261188e-04
-0.027038 3.261517e-04
-0.026913 3.261569e-04
-0.026788 3.261344e-04
-0.026663 3.260841e-04
-0.026538 3.260062e-04
-0.026413 3.259006e-04
-0.026288 3.257672e-04
-0.026163 3.256061e-04
-0.026038 3.254173e-04
-0.025913 3.252008e-04
-0.025788 3.249566e-04
-0.025663 3.246847e-04
-0.025538 3.243852e-04
-0.025413 3.240580e-04
-0.025288 3.237031e-04
-0.025163 3.233207e-04
-0.025038 3.229106e-04
-0.024913 3.224730e-04
-0.024788 3.220078e-04
-0.024663 3.215152e-04
-0.024538 3.209951e-04
-0.024413 3.204475e-04
-0.024288 3.198726e-04
-0.024163 3.192703e-04
-0.024038 3.186407e-04
-0.023913 3.179839e-04
-0.023788 3.172998e-04
-0.023663 3.165886e-04
-0.023538 3.158503e-04
-0.023413 3.150849e-04
-0.023288 3.142926e-04
-0.023163 3.134733e-04
-0.023038 3.126272e-04
-0.022913 3.117543e-04
-0.022788 3.108547e-04
-0.022663 3.099285e-04
-0.022538 3.089757e-04
-0.022413 3.079964e-04
-0.022288 3.069907e-04
-0.022163 3.059586e-04
-0.022038 3.049003e-04
-0.021913 3.038159e-04
-0.021788 3.027054e-04
-0.021663 3.015690e-04
-0.021538 3.004066e-04
-0.021413 2.992185e-04
-0.021288 2.980047e-04
-0.021163 2.967654e-04
-0.021038 2.955005e-04
-0.020913 2.942104e-04
-0.020788 2.928949e-04
-0.020663 2.915544e-04
-0.020538 2.901888e-04
-0.020413 2.887983e-04
-0.020288 2.873830e-04
-0.020163 2.859431e-04
-0.020038 2.844786e-04
-0.019913 2.829897e-04
-0.019788 2.814765e-04
-0.019663 2.799392e-04
-0.019538 2.783779e-04
-0.019413 2.767927e-04
-0.019288 2.751837e-04
-0.019163 2.735512e-04
-0.019038 2.718952e-04
-0.018913 2.702158e-04
-0.018788 2.685134e-04
-0.018663 2.667879e-04
-0.018538 2.650395e-04
-0.018413 2.632684e-04
-0.018288 2.614748e-04
-0.018163 2.596588e-04
-0.018038 2.578205e-04
-0.017913 2.559602e-04
-0.017788 2.540780e-04
-0.017663 2.521740e-04
-0.017538 2.502485e-04
-0.017413 2.483015e-04
-0.017288 2.463334e-04
-0.017163 2.443442e-04
-0.017038 2.423341e-04
-0.016913 2.403033e-04
-0.016788 2.382520e-04
-0.016663 2.361803e-04
-0.016538 2.340886e-04
-0.016413 2.319768e-04
-0.016288 2.298453e-04
-0.016163 2.276942e-04
-0.016038 2.255237e-04
-0.015913 2.233340e-04
-0.015788 2.211253e-04
-0.015663 2.188978e-04
-0.015538 2.166517e-04
-0.015413 2.143872e-04
-0.015288 2.121045e-04
-0.015163 2.098038e-04
-0.015038 2.074853e-04
-0.014913 2.051492e-04
-0.014788 2.027958e-04
-0.014663 2.004251e-04
-0.014538 1.980376e-04
-0.014413 1.956332e-04
-0.014288 1.932124e-04
-0.014163 1.907753e-04
-0.014038 1.883220e-04
-0.013913 1.858529e-04
-0.013788 1.833681e-04
-0.013663 1.808679e-04
-0.013538 1.783525e-04
-0.013413 1.758221e-04
-0.013288 1.732770e-04
-0.013163 1.707173e-04
-0.013038 1.681434e-04
-0.012913 1.655553e-04
-0.012788 1.629535e-04
-0.012663 1.603380e-04
-0.012538 1.577091e-04
-0.012413 1.550671e-04
-0.012288 1.524123e-04
-0.012163 1.497447e-04
-0.012038 1.470647e-04
-0.011913 1.443725e-04
-0.011788 1.416684e-04
-0.011663 1.389525e-04
-0.011538 1.362252e-04
-0.011413 1.334866e-04
-0.011288 1.307371e-04
-0.011163 1.279768e-04
-0.011038 1.252060e-04
-0.010913 1.224249e-04
-0.010788 1.196339e-04
-0.010663 1.168330e-04
-0.010538 1.140227e-04
-0.010413 1.112031e-04
-0.010288 1.083745e-04
-0.010163 1.055371e-04
-0.010038 1.026912e-04
-0.009913 9.983700e-05
-0.009788 9.697480e-05
-0.009663 9.410483e-05
-0.009538 9.122735e-05
-0.009413 8.834260e-05
-0.009288 8.545083e-05
-0.009163 8.255231e-05
-0.009038 7.964728e-05
-0.008913 7.673600e-05
-0.008788 7.381872e-05
-0.008663 7.089569e-05
-0.008538 6.796718e-05
-0.008413 6.503342e-05
-0.008288 6.209469e-05
-0.008163 5.915122e-05
-0.008038 5.620329e-05
-0.007913 5.325113e-05
-0.007788 5.029502e-05
-0.007663 4.733520e-05
-0.007538 4.437192e-05
-0.007413 4.140545e-05
-0.007288 3.843603e-05
-0.007163 3.546393e-05
-0.007038 3.248940e-05
-0.006913 2.951269e-05
-0.006788 2.653405e-05
-0.006663 2.355375e-05
-0.006538 2.057203e-05
-0.006413 1.758915e-05
-0.006288 1.460536e-05
-0.006163 1.162093e-05
-0.006038 8.636087e-06
-0.005913 5.651101e-06
-0.005788 2.666220e-06
-0.005663 -3.183026e-07
-0.005538 -3.302216e-06
-0.005413 -6.285269e-06
-0.005288 -9.267211e-06
-0.005163 -1.224779e-05
-0.005038 -1.522676e-05
-0.004913 -1.820386e-05
-0.004788 -2.117886e-05
-0.004663 -2.415150e-05
-0.004538 -2.712153e-05
-0.004413 -3.008871e-05
-0.004288 -3.305279e-05
-0.004163 -3.601352e-05
-0.004038 -3.897066e-05
-0.003913 -4.192396e-05
-0.003788 -4.487319e-05
-0.003663 -4.781809e-05
-0.003538 -5.075843e-05
-0.003413 -5.369396e-05
-0.003288 -5.662445e-05
-0.003163 -5.954964e-05
-0.003038 -6.246932e-05
-0.002913 -6.538322e-05
-0.002788 -6.829113e-05
-0.002663 -7.119279e-05
-0.002538 -7.408799e-05
-0.002413 -7.697647e-05
-0.002288 -7.985801e-05
-0.002163 -8.273237e-05
-0.002038 -8.559933e-05
-0.001913 -8.845865e-05
-0.001788 -9.131011e-05
-0.001663 -9.415346e-05
-0.001538 -9.698849e-05
-0.001413 -9.981497e-05
-0.001288 -1.026327e-04
-0.001163 -1.054414e-04
-0.001038 -1.082409e-04
-0.000913 -1.110309e-04
-0.000788 -1.138113e-04
-0.000663 -1.165817e-04
-0.000538 -1.193421e-04
-0.000413 -1.220922e-04
-0.000288 -1.248317e-04
-0.000163 -1.275604e-04
-0.000038 -1.302782e-04
0.000087 -1.329848e-04
0.000212 -1.356800e-04
0.000337 -1.383636e-04
0.000462 -1.410354e-04
0.000587 -1.436952e-04
0.000712 -1.463427e-04
0.000837 -1.489778e-04
0.000962 -1.516003e-04
0.001087 -1.542099e-04
0.001212 -1.568065e-04
0.001337 -1.593899e-04
0.001462 -1.619598e-04
0.001587 -1.645161e-04
0.001712 -1.670585e-04
0.001837 -1.695870e-04
0.001962 -1.721012e-04
0.002087 -1.746010e-04
0.002212 -1.770862e-04
0.002337 -1.795566e-04
0.002462 -1.820121e-04
0.002587 -1.844523e-04
0.002712 -1.868773e-04
0.002837 -1.892867e-04
0.002962 -1.916804e-04
0.003087 -1.940582e-04
0.003212 -1.964200e-04
0.003337 -1.987655e-04
0.003462 -2.010946e-04
0.003587 -2.034071e-04
0.003712 -2.057028e-04
0.003837 -2.079816e-04
0.003962 -2.102433e-04
0.004087 -2.124877e-04
0.004212 -2.147147e-04
0.004337 -2.169240e-04
0.004462 -2.191156e-04
0.004587 -2.212893e-04
0.004712 -2.234449e-04
0.004837 -2.255822e-04
0.004962 -2.277012e-04
0.005087 -2.298015e-04
0.005212 -2.318832e-04
0.005337 -2.339460e-04
0.005462 -2.359897e-04
0.005587 -2.380143e-04
0.005712 -2.400196e-04
0.005837 -2.420054e-04
0.005962 -2.439717e-04
0.006087 -2.459181e-04
0.006212 -2.478447e-04
0.006337 -2.497512e-04
0.006462 -2.516376e-04
0.006587 -2.535037e-04
0.006712 -2.553493e-04
0.006837 -2.571743e-04
0.006962 -2.589787e-04
0.007087 -2.607622e-04
0.007212 -2.625247e-04
0.007337 -2.642661e-04
0.007462 -2.659864e-04
0.007587 -2.676853e-04
0.007712 -2.693627e-04
0.007837 -2.710185e-04
0.007962 -2.726526e-04
0.008087 -2.742649e-04
0.008212 -2.758553e-04
0.008337 -2.774236e-04
0.008462 -2.789697e-04
0.008587 -2.804936e-04
0.008712 -2.819951e-04
0.008837 -2.834741e-04
0.008962 -2.849304e-04
0.009087 -2.863641e-04
0.009212 -2.877750e-04
0.009337 -2.891629e-04
0.009462 -2.905279e-04
0.009587 -2.918697e-04
0.009712 -2.931883e-04
0.009837 -2.944837e-04
0.009962 -2.957556e-04
0.010087 -2.970040e-04
0.010212 -2.982289e-04
0.010337 -2.994301e-04
0.010462 -3.006076e-04
0.010587 -3.017612e-04
0.010712 -3.028909e-04
0.010837 -3.039965e-04
0.010962 -3.050781e-04
0.011087 -3.061356e-04
0.011212 -3.071688e-04
0.011337 -3.081776e-04
0.011462 -3.091621e-04
0.011587 -3.101221e-04
0.011712 -3.110576e-04
0.011837 -3.119685e-04
0.011962 -3.128547e-04
0.012087 -3.137161e-04
0.012212 -3.145528e-04
0.012337 -3.153646e-04
0.012462 -3.161514e-04
0.012587 -3.169133e-04
0.012712 -3.176501e-04
0.012837 -3.183618e-04
0.012962 -3.190484e-04
0.013087 -3.197097e-04
0.013212 -3.203458e-04
0.013337 -3.209565e-04
0.013462 -3.215419e-04
0.013587 -3.221019e-04
0.013712 -3.226364e-04
0.013837 -3.231455e-04
0.013962 -3.236290e-04
0.014087 -3.240869e-04
0.014212 -3.245191e-04
0.014337 -3.249258e-04
0.014462 -3.253067e-04
0.014587 -3.256619e-04
0.014712 -3.259913e-04
0.014837 -3.262950e-04
0.014962 -3.265728e-04
0.015087 -3.268248e-04
0.015212 -3.270509e-04
0.015337 -3.272511e-04
0.015462 -3.274254e-04
0.015587 -3.275737e-04
0.015712 -3.276961e-04
0.015837 -3.277924e-04
0.015962 -3.278628e-04
0.016087 -3.279072e-04
0.016212 -3.279256e-04
0.016337 -3.279179e-04
0.016462 -3.278842e-04
0.016587 -3.278244e-04
0.016712 -3.277386e-04
0.016837 -3.276267e-04
0.016962 -3.274887e-04
0.017087 -3.273247e-04
0.017212 -3.271346e-04
0.017337 -3.269184e-04
0.017462 -3.266761e-04
0.017587 -3.264078e-04
0.017712 -3.261135e-04
0.017837 -3.257931e-04
0.017962 -3.254467e-04
0.018087 -3.250743e-04
0.018212 -3.246758e-04
0.018337 -3.242514e-04
0.018462 -3.238010e-04
0.018587 -3.233246e-04
0.018712 -3.228223e-04
0.018837 -3.222941e-04
0.018962 -3.217400e-04
0.019087 -3.211600e-04
0.019212 -3.205542e-04
0.019337 -3.199226e-04
0.019462 -3.192652e-04
0.019587 -3.185821e-04
0.019712 -3.178733e-04
0.019837 -3.171388e-04
0.019962 -3.163786e-04
0.020087 -3.155929e-04
0.020212 -3.147816e-04
0.020337 -3.139448e-04
0.020462 -3.130825e-04
0.020587 -3.121948e-04
0.020712 -3.112818e-04
0.020837 -3.103434e-04
0.020962 -3.093797e-04
0.021087 -3.083908e-04
0.021212 -3.073768e-04
0.021337 -3.063377e-04
0.021462 -3.052735e-04
0.021587 -3.041843e-04
0.021712 -3.030702e-04
0.021837 -3.019313e-04
0.021962 -3.007675e-04
0.022087 -2.995790e-04
0.022212 -2.983659e-04
0.022337 -2.971282e-04
0.022462 -2.958660e-04
0.022587 -2.945793e-04
0.022712 -2.932683e-04
0.022837 -2.919330e-04
0.022962 -2.905735e-04
0.023087 -2.891899e-04
0.023212 -2.877823e-04
0.023337 -2.863507e-04
0.023462 -2.848953e-04
0.023587 -2.834161e-04
0.023712 -2.819132e-04
0.023837 -2.803868e-04
0.023962 -2.788368e-04
0.024087 -2.772635e-04
0.024212 -2.756668e-04
0.024337 -2.740470e-04
0.024462 -2.724041e-04
0.024587 -2.707383e-04
0.024712 -2.690495e-04
0.024837 -2.673380e-04
0.024962 -2.656038e-04
0.025087 -2.638471e-04
0.025212 -2.620680e-04
0.025337 -2.602665e-04
0.025462 -2.584429e-04
0.025587 -2.565972e-04
0.025712 -2.547295e-04
0.025837 -2.528400e-04
0.025962 -2.509288e-04
0.026087 -2.489960e-04
0.026212 -2.470418e-04
0.026337 -2.450663e-04
0.026462 -2.430696e-04
0.026587 -2.410518e-04
0.026712 -2.390131e-04
0.026837 -2.369537e-04
0.026962 -2.348736e-04
0.027087 -2.327731e-04
0.027212 -2.306522e-04
0.027337 -2.285111e-04
0.027462 -2.263500e-04
0.027587 -2.241690e-04
0.027712 -2.219682e-04
0.027837 -2.197479e-04
0.027962 -2.175081e-04
0.028087 -2.152490e-04
0.028212 -2.129709e-04
0.028337 -2.106737e-04
0.028462 -2.083578e-04
0.028587 -2.060233e-04
0.028712 -2.036703e-04
0.028837 -2.012990e-04
0.028962 -1.989096e-04
0.029087 -1.965023e-04
0.029212 -1.940772e-04
0.029337 -1.916345e-04
0.029462 -1.891744e-04
0.029587 -1.866971e-04
0.029712 -1.842027e-04
0.029837 -1.816914e-04
0.029962 -1.791635e-04
0.030087 -1.766191e-04
0.030212 -1.740583e-04
0.030337 -1.714815e-04
0.030462 -1.688887e-04
0.030587 -1.662802e-04
0.030712 -1.636562e-04
0.030837 -1.610169e-04
0.030962 -1.583624e-04
0.031087 -1.556931e-04
0.031212 -1.530089e-04
0.031337 -1.503103e-04
0.031462 -1.475974e-04
0.031587 -1.448704e-04
0.031712 -1.421294e-04
0.031837 -1.393748e-04
0.031962 -1.366068e-04
0.032087 -1.338254e-04
0.032212 -1.310311e-04
0.032337 -1.282240e-04
0.032462 -1.254042e-04
0.032587 -1.225721e-04
0.032712 -1.197278e-04
0.032837 -1.168717e-04
0.032962 -1.140038e-04
0.033087 -1.111245e-04
0.033212 -1.082339e-04
0.033337 -1.053323e-04
0.033462 -1.024200e-04
0.033587 -9.949713e-05
0.033712 -9.656396e-05
0.033837 -9.362074e-05
0.033962 -9.066769e-05
0.034087 -8.770507e-05
0.034212 -8.473311e-05
0.034337 -8.175205e-05
0.034462 -7.876214e-05
0.034587 -7.576363e-05
0.034712 -7.275677e-05
0.034837 -6.974180e-05
0.034962 -6.671897e-05
0.035087 -6.368853e-05
0.035212 -6.065075e-05
0.035337 -5.760586e-05
0.035462 -5.455414e-05
0.035587 -5.149582e-05
0.035712 -4.843118e-05
0.035837 -4.536047e-05
0.035962 -4.228395e-05
0.036087 -3.920188e-05
0.036212 -3.611452e-05
0.036337 -3.302214e-05
0.036462 -2.992500e-05
0.036587 -2.682336e-05
0.036712 -2.371750e-05
0.036837 -2.060768e-05
0.036962 -1.749417e-05
0.037087 -1.437724e-05
0.037212 -1.125715e-05
0.037337 -8.134186e-06
0.037462 -5.008610e-06
0.037587 -1.880699e-06
0.037712 1.249274e-06
0.037837 4.381036e-06
0.037962 7.514310e-06
0.038087 1.064882e-05
0.038212 1.378429e-05
0.038337 1.692045e-05
0.038462 2.005701e-05
0.038587 2.319370e-05
0.038712 2.633023e-05
0.038837 2.946633e-05
0.038962 3.260173e-05
0.039087 3.573612e-05
0.039212 3.886925e-05
0.039337 4.200082e-05
0.039462 4.513055e-05
0.039587 4.825816e-05
0.039712 5.138337e-05
0.039837 5.450589e-05
0.039962 5.762544e-05
0.040087 6.074174e-05
0.040212 6.385450e-05
0.040337 6.696345e-05
0.040462 7.006828e-05
0.040587 7.316873e-05
0.040712 7.626451e-05
0.040837 7.935532e-05
0.040962 8.244090e-05
0.041087 8.552094e-05
0.041212 8.859518e-05
0.041337 9.166331e-05
0.041462 9.472507e-05
0.041587 9.778016e-05
0.041712 1.008283e-04
0.041837 1.038692e-04
0.041962 1.069026e-04
0.042087 1.099282e-04
0.042212 1.129457e-04
0.042337 1.159549e-04
0.042462 1.189553e-04
0.042587 1.219469e-04
0.042712 1.249293e-04
0.042837 1.279021e-04
0.042962 1.308652e-04
0.043087 1.338182e-04
0.043212 1.367609e-04
0.043337 1.396930e-04
0.043462 1.426142e-04
0.043587 1.455242e-04
0.043712 1.484228e-04
0.043837 1.513097e-04
0.043962 1.541845e-04
0.044087 1.570471e-04
0.044212 1.598972e-04
0.044337 1.627344e-04
0.044462 1.655585e-04
0.044587 1.683693e-04
0.044712 1.711664e-04
0.044837 1.739497e-04
0.044962 1.767188e-04
0.045087 1.794734e-04
0.045212 1.822133e-04
0.045337 1.849383e-04
0.045462 1.876480e-04
0.045587 1.903423e-04
0.045712 1.930208e-04
0.045837 1.956833e-04
0.045962 1.983295e-04
0.046087 2.009592e-04
0.046212 2.035721e-04
0.046337 2.061680e-04
0.046462 2.087466e-04
0.046587 2.113076e-04
0.046712 2.138508e-04
0.046837 2.163761e-04
0.046962 2.188830e-04
0.047087 2.213714e-04
0.047212 2.238410e-04
0.047337 2.262916e-04
0.047462 2.287230e-04
0.047587 2.311348e-04
0.047712 2.335270e-04
0.047837 2.358992e-04
0.047962 2.382511e-04
0.048087 2.405827e-04
0.048212 2.428936e-04
0.048337 2.451836e-04
0.048462 2.474525e-04
0.048587 2.497001e-04
0.048712 2.519261e-04
0.048837 2.541304e-04
0.048962 2.563126e-04
0.049087 2.584727e-04
0.049212 2.606104e-04
0.049337 2.627254e-04
0.049462 2.648176e-04
0.049587 2.668868e-04
0.049712 2.689327e-04
0.049837 2.709552e-04
0.049962 2.729540e-04
0.050087 2.749290e-04
0.050212 2.768800e-04
0.050337 2.788068e-04
0.050462 2.807091e-04
0.050587 2.825869e-04
0.050712 2.844398e-04
0.050837 2.862678e-04
0.050962 2.880707e-04
0.051087 2.898482e-04
0.051212 2.916002e-04
0.051337 2.933266e-04
0.051462 2.950271e-04
0.051587 2.967017e-04
0.051712 2.983500e-04
0.051837 2.999720e-04
0.051962 3.015676e-04
0.052087 3.031365e-04
0.052212 3.046786e-04
0.052337 3.061938e-04
0.052462 3.076819e-04
0.052587 3.091427e-04
0.052712 3.105762e-04
0.052837 3.119821e-04
0.052962 3.133604e-04
0.053087 3.147109e-04
0.053212 3.160335e-04
0.053337 3.173281e-04
0.053462 3.185944e-04
0.053587 3.198325e-04
0.053712 3.210422e-04
0.053837 3.222234e-04
0.053962 3.233759e-04
0.054087 3.244997e-04
0.054212 3.255947e-04
0.054337 3.266607e-04
0.054462 3.276976e-04
0.054587 3.287054e-04
0.054712 3.296840e-04
0.054837 3.306332e-04
0.054962 3.315530e-04
0.055087 3.324433e-04
0.055212 3.333040e-04
0.055337 3.341350e-04
0.055462 3.349363e-04
0.055587 3.357078e-04
0.055712 3.364494e-04
0.055837 3.371610e-04
0.055962 3.378426e-04
0.056087 3.384942e-04
0.056212 3.391156e-04
0.056337 3.397069e-04
0.056462 3.402679e-04
0.056587 3.407986e-04
0.056712 3.412990e-04
0.056837 3.417691e-04
0.056962 3.422088e-04
0.057087 3.426180e-04
0.057212 3.429968e-04
0.057337 3.433450e-04
0.057462 3.436628e-04
0.057587 3.439500e-04
0.057712 3.442067e-04
0.057837 3.444328e-04
0.057962 3.446283e-04
0.058087 3.447933e-04
0.058212 3.449276e-04
0.058337 3.450314e-04
0.058462 3.451046e-04
0.058587 3.451471e-04
0.058712 3.451591e-04
0.058837 3.451406e-04