-0.102788 6.665986e-03
-0.102663 6.710086e-03
-0.102538 6.753856e-03
-0.102413 6.797291e-03
-0.102288 6.840385e-03
-0.102163 6.883132e-03
-0.102038 6.925529e-03
-0.101913 6.967568e-03
-0.101788 7.009246e-03
-0.101663 7.050556e-03
-0.101538 7.091494e-03
-0.101413 7.132055e-03
-0.101288 7.172233e-03
-0.101163 7.212023e-03
-0.101038 7.251420e-03
-0.100913 7.290419e-03
-0.100788 7.329015e-03
-0.100663 7.367203e-03
-0.100538 7.404978e-03
-0.100413 7.442335e-03
-0.100288 7.479269e-03
-0.100163 7.515775e-03
-0.100038 7.551848e-03
-0.099913 7.587483e-03
-0.099788 7.622676e-03
-0.099663 7.657421e-03
-0.099538 7.691714e-03
-0.099413 7.725550e-03
-0.099288 7.758924e-03
-0.099163 7.791833e-03
-0.099038 7.824270e-03
-0.098913 7.856231e-03
-0.098788 7.887712e-03
-0.098663 7.918709e-03
-0.098538 7.949216e-03
-0.098413 7.979229e-03
-0.098288 8.008743e-03
-0.098163 8.037755e-03
-0.098038 8.066260e-03
-0.097913 8.094254e-03
-0.097788 8.121731e-03
-0.097663 8.148689e-03
-0.097538 8.175122e-03
-0.097413 8.201026e-03
-0.097288 8.226398e-03
-0.097163 8.251233e-03
-0.097038 8.275526e-03
-0.096913 8.299275e-03
-0.096788 8.322475e-03
-0.096663 8.345122e-03
-0.096538 8.367211e-03
-0.096413 8.388740e-03
-0.096288 8.409704e-03
-0.096163 8.430100e-03
-0.096038 8.449923e-03
-0.095913 8.469170e-03
-0.095788 8.487838e-03
-0.095663 8.505922e-03
-0.095538 8.523419e-03
-0.095413 8.540326e-03
-0.095288 8.556639e-03
-0.095163 8.572354e-03
-0.095038 8.587469e-03
-0.094913 8.601979e-03
-0.094788 8.615881e-03
-0.094663 8.629173e-03
-0.094538 8.641851e-03
-0.094413 8.653911e-03
-0.094288 8.665351e-03
-0.094163 8.676168e-03
-0.094038 8.686358e-03
-0.093913 8.695918e-03
-0.093788 8.704846e-03
-0.093663 8.713139e-03
-0.093538 8.720794e-03
-0.093413 8.727807e-03
-0.093288 8.734177e-03
-0.093163 8.739901e-03
-0.093038 8.744976e-03
-0.092913 8.749399e-03
-0.092788 8.753168e-03
-0.092663 8.756280e-03
-0.092538 8.758734e-03
-0.092413 8.760526e-03
-0.092288 8.761654e-03
-0.092163 8.762116e-03
-0.092038 8.761910e-03
-0.091913 8.761034e-03
-0.091788 8.759486e-03
-0.091663 8.757262e-03
-0.091538 8.754363e-03
-0.091413 8.750785e-03
-0.091288 8.746527e-03
-0.091163 8.741586e-03
-0.091038 8.735962e-03
-0.090913 8.729652e-03
-0.090788 8.722655e-03
-0.090663 8.714969e-03
-0.090538 8.706593e-03
-0.090413 8.697525e-03
-0.090288 8.687763e-03
-0.090163 8.677307e-03
-0.090038 8.666155e-03
-0.089913 8.654305e-03
-0.089788 8.641757e-03
-0.089663 8.628510e-03
-0.089538 8.614562e-03
-0.089413 8.599912e-03
-0.089288 8.584560e-03
-0.089163 8.568504e-03
-0.089038 8.551744e-03
-0.088913 8.534279e-03
-0.088788 8.516107e-03
-0.088663 8.497230e-03
-0.088538 8.477645e-03
-0.088413 8.457352e-03
-0.088288 8.436352e-03
-0.088163 8.414643e-03
-0.088038 8.392225e-03
-0.087913 8.369097e-03
-0.087788 8.345261e-03
-0.087663 8.320714e-03
-0.087538 8.295458e-03
-0.087413 8.269493e-03
-0.087288 8.242817e-03
-0.087163 8.215432e-03
-0.087038 8.187337e-03
-0.086913 8.158533e-03
-0.086788 8.129019e-03
-0.086663 8.098797e-03
-0.086538 8.067867e-03
-0.086413 8.036229e-03
-0.086288 8.003883e-03
-0.086163 7.970830e-03
-0.086038 7.937071e-03
-0.085913 7.902606e-03
-0.085788 7.867437e-03
-0.085663 7.831564e-03
-0.085538 7.794987e-03
-0.085413 7.757709e-03
-0.085288 7.719729e-03
-0.085163 7.681049e-03
-0.085038 7.641671e-03
-0.084913 7.601594e-03
-0.084788 7.560821e-03
-0.084663 7.519353e-03
-0.084538 7.477191e-03
-0.084413 7.434337e-03
-0.084288 7.390791e-03
-0.084163 7.346557e-03
-0.084038 7.301635e-03
-0.083913 7.256027e-03
-0.083788 7.209734e-03
-0.083663 7.162760e-03
-0.083538 7.115105e-03
-0.083413 7.066771e-03
-0.083288 7.017761e-03
-0.083163 6.968076e-03
-0.083038 6.917719e-03
-0.082913 6.866691e-03
-0.082788 6.814996e-03
-0.082663 6.762635e-03
-0.082538 6.709611e-03
-0.082413 6.655926e-03
-0.082288 6.601583e-03
-0.082163 6.546584e-03
-0.082038 6.490933e-03
-0.081913 6.434630e-03
-0.081788 6.377680e-03
-0.081663 6.320085e-03
-0.081538 6.261848e-03
-0.081413 6.202972e-03
-0.081288 6.143460e-03
-0.081163 6.083314e-03
-0.081038 6.022539e-03
-0.080913 5.961137e-03
-0.080788 5.899111e-03
-0.080663 5.836465e-03
-0.080538 5.773202e-03
-0.080413 5.709326e-03
-0.080288 5.644839e-03
-0.080163 5.579746e-03
-0.080038 5.514050e-03
-0.079913 5.447754e-03
-0.079788 5.380863e-03
-0.079663 5.313380e-03
-0.079538 5.245309e-03
-0.079413 5.176653e-03
-0.079288 5.107418e-03
-0.079163 5.037605e-03
-0.079038 4.967221e-03
-0.078913 4.896268e-03
-0.078788 4.824751e-03
-0.078663 4.752675e-03
-0.078538 4.680042e-03
-0.078413 4.606859e-03
-0.078288 4.533128e-03
-0.078163 4.458855e-03
-0.078038 4.384044e-03
-0.077913 4.308700e-03
-0.077788 4.232826e-03
-0.077663 4.156428e-03
-0.077538 4.079511e-03
-0.077413 4.002079e-03
-0.077288 3.924137e-03
-0.077163 3.845689e-03
-0.077038 3.766741e-03
-0.076913 3.687298e-03
-0.076788 3.607365e-03
-0.076663 3.526946e-03
-0.076538 3.446047e-03
-0.076413 3.364674e-03
-0.076288 3.282830e-03
-0.076163 3.200522e-03
-0.076038 3.117754e-03
-0.075913 3.034533e-03
-0.075788 2.950863e-03
-0.075663 2.866750e-03
-0.075538 2.782199e-03
-0.075413 2.697216e-03
-0.075288 2.611807e-03
-0.075163 2.525977e-03
-0.075038 2.439732e-03
-0.074913 2.353078e-03
-0.074788 2.266020e-03
-0.074663 2.178564e-03
-0.074538 2.090716e-03
-0.074413 2.002482e-03
-0.074288 1.913868e-03
-0.074163 1.824880e-03
-0.074038 1.735524e-03
-0.073913 1.645806e-03
-0.073788 1.555732e-03
-0.073663 1.465308e-03
-0.073538 1.374541e-03
-0.073413 1.283436e-03
-0.073288 1.192000e-03
-0.073163 1.100240e-03
-0.073038 1.008161e-03
-0.072913 9.157703e-04
-0.072788 8.230740e-04
-0.072663 7.300786e-04
-0.072538 6.367907e-04
-0.072413 5.432168e-04
-0.072288 4.493635e-04
-0.072163 3.552373e-04
-0.072038 2.608449e-04
-0.071913 1.661930e-04
-0.071788 7.128836e-05
-0.071663 -2.386232e-05
-0.071538 -1.192523e-04
-0.071413 -2.148746e-04
-0.071288 -3.107226e-04
-0.071163 -4.067893e-04
-0.071038 -5.030678e-04
-0.070913 -5.995511e-04
-0.070788 -6.962324e-04
-0.070663 -7.931045e-04
-0.070538 -8.901606e-04
-0.070413 -9.873934e-04
-0.070288 -1.084796e-03
-0.070163 -1.182361e-03
-0.070038 -1.280082e-03
-0.069913 -1.377951e-03
-0.069788 -1.475961e-03
-0.069663 -1.574105e-03
-0.069538 -1.672376e-03
-0.069413 -1.770767e-03
-0.069288 -1.869269e-03
-0.069163 -1.967876e-03
-0.069038 -2.066581e-03
-0.068913 -2.165376e-03
-0.068788 -2.264254e-03
-0.068663 -2.363208e-03
-0.068538 -2.462229e-03
-0.068413 -2.561311e-03
-0.068288 -2.660446e-03
-0.068163 -2.759627e-03
-0.068038 -2.858846e-03
-0.067913 -2.958096e-03
-0.067788 -3.057369e-03
-0.067663 -3.156657e-03
-0.067538 -3.255954e-03
-0.067413 -3.355251e-03
-0.067288 -3.454542e-03
-0.067163 -3.553817e-03
-0.067038 -3.653071e-03
-0.066913 -3.752295e-03
-0.066788 -3.851481e-03
-0.066663 -3.950622e-03
-0.066538 -4.049711e-03
-0.066413 -4.148739e-03
-0.066288 -4.247700e-03
-0.066163 -4.346584e-03
-0.066038 -4.445386e-03
-0.065913 -4.544096e-03
-0.065788 -4.642708e-03
-0.065663 -4.741213e-03
-0.065538 -4.839604e-03
-0.065413 -4.937874e-03
-0.065288 -5.036014e-03
-0.065163 -5.134017e-03
-0.065038 -5.231874e-03
-0.064913 -5.329580e-03
-0.064788 -5.427124e-03
-0.064663 -5.524501e-03
-0.064538 -5.621702e-03
-0.064413 -5.718720e-03
-0.064288 -5.815546e-03
-0.064163 -5.912174e-03
-0.064038 -6.008594e-03
-0.063913 -6.104801e-03
-0.063788 -6.200785e-03
-0.063663 -6.296540e-03
-0.063538 -6.392057e-03
-0.063413 -6.487330e-03
-0.063288 -6.582349e-03
-0.063163 -6.677108e-03
-0.063038 -6.771599e-03
-0.062913 -6.865813e-03
-0.062788 -6.959745e-03
-0.062663 -7.053385e-03
-0.062538 -7.146727e-03
-0.062413 -7.239763e-03
-0.062288 -7.332484e-03
-0.062163 -7.424884e-03
-0.062038 -7.516955e-03
-0.061913 -7.608689e-03
-0.061788 -7.700078e-03
-0.061663 -7.791116e-03
-0.061538 -7.881795e-03
-0.061413 -7.972107e-03
-0.061288 -8.062044e-03
-0.061163 -8.151600e-03
-0.061038 -8.240767e-03
-0.060913 -8.329536e-03
-0.060788 -8.417902e-03
-0.060663 -8.505856e-03
-0.060538 -8.593391e-03
-0.060413 -8.680500e-03
-0.060288 -8.767175e-03
-0.060163 -8.853409e-03
-0.060038 -8.939195e-03
-0.059913 -9.024526e-03
-0.059788 -9.109394e-03
-0.059663 -9.193791e-03
-0.059538 -9.277712e-03
-0.059413 -9.361148e-03
-0.059288 -9.444093e-03
-0.059163 -9.526539e-03
-0.059038 -9.608479e-03
-0.058913 -9.689907e-03
-0.058788 -9.770814e-03
-0.058663 -9.851195e-03
-0.058538 -9.931042e-03
-0.058413 -1.001035e-02
-0.058288 -1.008911e-02
-0.058163 -1.016731e-02
-0.058038 -1.024495e-02
-0.057913 -1.032203e-02
-0.057788 -1.039853e-02
-0.057663 -1.047444e-02
-0.057538 -1.054977e-02
-0.057413 -1.062451e-02
-0.057288 -1.069864e-02
-0.057163 -1.077216e-02
-0.057038 -1.084507e-02
-0.056913 -1.091736e-02
-0.056788 -1.098902e-02
-0.056663 -1.106004e-02
-0.056538 -1.113043e-02
-0.056413 -1.120016e-02
-0.056288 -1.126925e-02
-0.056163 -1.133767e-02
-0.056038 -1.140543e-02
-0.055913 -1.147251e-02
-0.055788 -1.153892e-02
-0.055663 -1.160464e-02
-0.055538 -1.166967e-02
-0.055413 -1.173400e-02
-0.055288 -1.179763e-02
-0.055163 -1.186056e-02
-0.055038 -1.192276e-02
-0.054913 -1.198425e-02
-0.054788 -1.204501e-02
-0.054663 -1.210504e-02
-0.054538 -1.216433e-02
-0.054413 -1.222288e-02
-0.054288 -1.228068e-02
-0.054163 -1.233772e-02
-0.054038 -1.239400e-02
-0.053913 -1.244952e-02
-0.053788 -1.250427e-02
-0.053663 -1.255824e-02
-0.053538 -1.261143e-02
-0.053413 -1.266383e-02
-0.053288 -1.271544e-02
-0.053163 -1.276625e-02
-0.053038 -1.281626e-02
-0.052913 -1.286546e-02
-0.052788 -1.291385e-02
-0.052663 -1.296142e-02
-0.052538 -1.300817e-02
-0.052413 -1.305409e-02
-0.052288 -1.309919e-02
-0.052163 -1.314344e-02
-0.052038 -1.318685e-02
-0.051913 -1.322942e-02
-0.051788 -1.327114e-02
-0.051663 -1.331200e-02
-0.051538 -1.335200e-02
-0.051413 -1.339114e-02
-0.051288 -1.342941e-02
-0.051163 -1.346681e-02
-0.051038 -1.350333e-02
-0.050913 -1.353897e-02
-0.050788 -1.357373e-02
-0.050663 -1.360760e-02
-0.050538 -1.364057e-02
-0.050413 -1.367265e-02
-0.050288 -1.370383e-02
-0.050163 -1.373411e-02
-0.050038 -1.376348e-02
-0.049913 -1.379194e-02
-0.049788 -1.381948e-02
-0.049663 -1.384610e-02
-0.049538 -1.387180e-02
-0.049413 -1.389658e-02
-0.049288 -1.392043e-02
-0.049163 -1.394335e-02
-0.049038 -1.396533e-02
-0.048913 -1.398638e-02
-0.048788 -1.400648e-02
-0.048663 -1.402564e-02
-0.048538 -1.404386e-02
-0.048413 -1.406112e-02
-0.048288 -1.407743e-02
-0.048163 -1.409279e-02
-0.048038 -1.410719e-02
-0.047913 -1.412063e-02
-0.047788 -1.413311e-02
-0.047663 -1.414462e-02
-0.047538 -1.415517e-02
-0.047413 -1.416475e-02
-0.047288 -1.417335e-02
-0.047163 -1.418098e-02
-0.047038 -1.418764e-02
-0.046913 -1.419332e-02
-0.046788 -1.419802e-02
-0.046663 -1.420173e-02
-0.046538 -1.420446e-02
-0.046413 -1.420621e-02
-0.046288 -1.420698e-02
-0.046163 -1.420675e-02
-0.046038 -1.420553e-02
-0.045913 -1.420333e-02
-0.045788 -1.420013e-02
-0.045663 -1.419593e-02
-0.045538 -1.419075e-02
-0.045413 -1.418456e-02
-0.045288 -1.417738e-02
-0.045163 -1.416921e-02
-0.045038 -1.416003e-02
-0.044913 -1.414985e-02
-0.044788 -1.413868e-02
-0.044663 -1.412650e-02
-0.044538 -1.411332e-02
-0.044413 -1.409914e-02
-0.044288 -1.408396e-02
-0.044163 -1.406778e-02
-0.044038 -1.405059e-02
-0.043913 -1.403240e-02
-0.043788 -1.401320e-02
-0.043663 -1.399300e-02
-0.043538 -1.397180e-02
-0.043413 -1.394960e-02
-0.043288 -1.392639e-02
-0.043163 -1.390218e-02
-0.043038 -1.387697e-02
-0.042913 -1.385075e-02
-0.042788 -1.382354e-02
-0.042663 -1.379532e-02
-0.042538 -1.376610e-02
-0.042413 -1.373588e-02
-0.042288 -1.370467e-02
-0.042163 -1.367245e-02
-0.042038 -1.363924e-02
-0.041913 -1.360503e-02
-0.041788 -1.356983e-02
-0.041663 -1.353363e-02
-0.041538 -1.349645e-02
-0.041413 -1.345827e-02
-0.041288 -1.341910e-02
-0.041163 -1.337894e-02
-0.041038 -1.333779e-02
-0.040913 -1.329566e-02
-0.040788 -1.325255e-02
-0.040663 -1.320845e-02
-0.040538 -1.316338e-02
-0.040413 -1.311732e-02
-0.040288 -1.307029e-02
-0.040163 -1.302229e-02
-0.040038 -1.297332e-02
-0.039913 -1.292337e-02
-0.039788 -1.287246e-02
-0.039663 -1.282058e-02
-0.039538 -1.276775e-02
-0.039413 -1.271395e-02
-0.039288 -1.265919e-02
-0.039163 -1.260348e-02
-0.039038 -1.254682e-02
-0.038913 -1.248921e-02
-0.038788 -1.243065e-02
-0.038663 -1.237116e-02
-0.038538 -1.231072e-02
-0.038413 -1.224934e-02
-0.038288 -1.218703e-02
-0.038163 -1.212379e-02
-0.038038 -1.205962e-02
-0.037913 -1.199453e-02
-0.037788 -1.192852e-02
-0.037663 -1.186160e-02
-0.037538 -1.179376e-02
-0.037413 -1.172501e-02
-0.037288 -1.165535e-02
-0.037163 -1.158480e-02
-0.037038 -1.151334e-02
-0.036913 -1.144100e-02
-0.036788 -1.136776e-02
-0.036663 -1.129364e-02
-0.036538 -1.121864e-02
-0.036413 -1.114276e-02
-0.036288 -1.106601e-02
-0.036163 -1.098839e-02
-0.036038 -1.090990e-02
-0.035913 -1.083056e-02
-0.035788 -1.075036e-02
-0.035663 -1.066932e-02
-0.035538 -1.058743e-02
-0.035413 -1.050470e-02
-0.035288 -1.042113e-02
-0.035163 -1.033674e-02
-0.035038 -1.025152e-02
-0.034913 -1.016547e-02
-0.034788 -1.007862e-02
-0.034663 -9.990954e-03
-0.034538 -9.902485e-03
-0.034413 -9.813217e-03
-0.034288 -9.723156e-03
-0.034163 -9.632307e-03
-0.034038 -9.540676e-03
-0.033913 -9.448268e-03
-0.033788 -9.355090e-03
-0.033663 -9.261146e-03
-0.033538 -9.166442e-03
-0.033413 -9.070986e-03
-0.033288 -8.974782e-03
-0.033163 -8.877836e-03
-0.033038 -8.780155e-03
-0.032913 -8.681745e-03
-0.032788 -8.582612e-03
-0.032663 -8.482762e-03
-0.032538 -8.382202e-03
-0.032413 -8.280938e-03
-0.032288 -8.178976e-03
-0.032163 -8.076322e-03
-0.032038 -7.972985e-03
-0.031913 -7.868969e-03
-0.031788 -7.764282e-03
-0.031663 -7.658931e-03
-0.031538 -7.552921e-03
-0.031413 -7.446261e-03
-0.031288 -7.338957e-03
-0.031163 -7.231016e-03
-0.031038 -7.122444e-03
-0.030913 -7.013250e-03
-0.030788 -6.903440e-03
-0.030663 -6.793021e-03
-0.030538 -6.682000e-03
-0.030413 -6.570386e-03
-0.030288 -6.458184e-03
-0.030163 -6.345403e-03
-0.030038 -6.232049e-03
-0.029913 -6.118131e-03
-0.029788 -6.003656e-03
-0.029663 -5.888631e-03
-0.029538 -5.773065e-03
-0.029413 -5.656964e-03
-0.029288 -5.540336e-03
-0.029163 -5.423190e-03
-0.029038 -5.305533e-03
-0.028913 -5.187372e-03
-0.028788 -5.068717e-03
-0.028663 -4.949574e-03
-0.028538 -4.829951e-03
-0.028413 -4.709858e-03
-0.028288 -4.589301e-03
-0.028163 -4.468289e-03
-0.028038 -4.346831e-03
-0.027913 -4.224933e-03
-0.027788 -4.102605e-03
-0.027663 -3.979855e-03
-0.027538 -3.856691e-03
-0.027413 -3.733121e-03
-0.027288 -3.609154e-03
-0.027163 -3.484799e-03
-0.027038 -3.360063e-03
-0.026913 -3.234955e-03
-0.026788 -3.109485e-03
-0.026663 -2.983659e-03
-0.026538 -2.857488e-03
-0.026413 -2.730979e-03
-0.026288 -2.604141e-03
-0.026163 -2.476984e-03
-0.026038 -2.349515e-03
-0.025913 -2.221744e-03
-0.025788 -2.093679e-03
-0.025663 -1.965329e-03
-0.025538 -1.836704e-03
-0.025413 -1.707811e-03
-0.025288 -1.578660e-03
-0.025163 -1.449259e-03
-0.025038 -1.319619e-03
-0.024913 -1.189747e-03
-0.024788 -1.059653e-03
-0.024663 -9.293459e-04
-0.024538 -7.988346e-04
-0.024413 -6.681282e-04
-0.024288 -5.372360e-04
-0.024163 -4.061669e-04
-0.024038 -2.749303e-04
-0.023913 -1.435353e-04
-0.023788 -1.199104e-05
-0.023663 1.196932e-04
-0.023538 2.515082e-04
-0.023413 3.834447e-04
-0.023288 5.154934e-04
-0.023163 6.476451e-04
-0.023038 7.798903e-04
-0.022913 9.122199e-04
-0.022788 1.044624e-03
-0.022663 1.177095e-03
-0.022538 1.309621e-03
-0.022413 1.442194e-03
-0.022288 1.574805e-03
-0.022163 1.707444e-03
-0.022038 1.840101e-03
-0.021913 1.972768e-03
-0.021788 2.105434e-03
-0.021663 2.238091e-03
-0.021538 2.370729e-03
-0.021413 2.503338e-03
-0.021288 2.635909e-03
-0.021163 2.768433e-03
-0.021038 2.900900e-03
-0.020913 3.033301e-03
-0.020788 3.165626e-03
-0.020663 3.297865e-03
-0.020538 3.430009e-03
-0.020413 3.562050e-03
-0.020288 3.693976e-03
-0.020163 3.825779e-03
-0.020038 3.957450e-03
-0.019913 4.088978e-03
-0.019788 4.220355e-03
-0.019663 4.351570e-03
-0.019538 4.482615e-03
-0.019413 4.613480e-03
-0.019288 4.744155e-03
-0.019163 4.874631e-03
-0.019038 5.004899e-03
-0.018913 5.134949e-03
-0.018788 5.264771e-03
-0.018663 5.394357e-03
-0.018538 5.523697e-03
-0.018413 5.652781e-03
-0.018288 5.781600e-03
-0.018163 5.910144e-03
-0.018038 6.038405e-03
-0.017913 6.166374e-03
-0.017788 6.294039e-03
-0.017663 6.421393e-03
-0.017538 6.548426e-03
-0.017413 6.675128e-03
-0.017288 6.801491e-03
-0.017163 6.927506e-03
-0.017038 7.053162e-03
-0.016913 7.178450e-03
-0.016788 7.303362e-03
-0.016663 7.427889e-03
-0.016538 7.552021e-03
-0.016413 7.675748e-03
-0.016288 7.799063e-03
-0.016163 7.921955e-03
-0.016038 8.044416e-03
-0.015913 8.166436e-03
-0.015788 8.288008e-03
-0.015663 8.409120e-03
-0.015538 8.529766e-03
-0.015413 8.649935e-03
-0.015288 8.769619e-03
-0.015163 8.888809e-03
-0.015038 9.007496e-03
-0.014913 9.125671e-03
-0.014788 9.243326e-03
-0.014663 9.360451e-03
-0.014538 9.477039e-03
-0.014413 9.593079e-03
-0.014288 9.708564e-03
-0.014163 9.823486e-03
-0.014038 9.937834e-03
-0.013913 1.005160e-02
-0.013788 1.016478e-02
-0.013663 1.027736e-02
-0.013538 1.038933e-02
-0.013413 1.050069e-02
-0.013288 1.061142e-02
-0.013163 1.072152e-02
-0.013038 1.083098e-02
-0.012913 1.093980e-02
-0.012788 1.104796e-02
-0.012663 1.115545e-02
-0.012538 1.126227e-02
-0.012413 1.136840e-02
-0.012288 1.147385e-02
-0.012163 1.157861e-02
-0.012038 1.168265e-02
-0.011913 1.178599e-02
-0.011788 1.188860e-02
-0.011663 1.199048e-02
-0.011538 1.209163e-02
-0.011413 1.219204e-02
-0.011288 1.229169e-02
-0.011163 1.239058e-02
-0.011038 1.248871e-02
-0.010913 1.258606e-02
-0.010788 1.268263e-02
-0.010663 1.277841e-02
-0.010538 1.287339e-02
-0.010413 1.296757e-02
-0.010288 1.306094e-02
-0.010163 1.315349e-02
-0.010038 1.324521e-02
-0.009913 1.333610e-02
-0.009788 1.342615e-02
-0.009663 1.351536e-02
-0.009538 1.360371e-02
-0.009413 1.369120e-02
-0.009288 1.377782e-02
-0.009163 1.386357e-02
-0.009038 1.394844e-02
-0.008913 1.403241e-02
-0.008788 1.411550e-02
-0.008663 1.419768e-02
-0.008538 1.427896e-02
-0.008413 1.435933e-02
-0.008288 1.443877e-02
-0.008163 1.451729e-02
-0.008038 1.459487e-02
-0.007913 1.467152e-02
-0.007788 1.474722e-02
-0.007663 1.482197e-02
-0.007538 1.489577e-02
-0.007413 1.496860e-02
-0.007288 1.504047e-02
-0.007163 1.511136e-02
-0.007038 1.518127e-02
-0.006913 1.525019e-02
-0.006788 1.531813e-02
-0.006663 1.538506e-02
-0.006538 1.545100e-02
-0.006413 1.551593e-02
-0.006288 1.557985e-02
-0.006163 1.564275e-02
-0.006038 1.570462e-02
-0.005913 1.576547e-02
-0.005788 1.582529e-02
-0.005663 1.588406e-02
-0.005538 1.594180e-02
-0.005413 1.599849e-02
-0.005288 1.605412e-02
-0.005163 1.610870e-02
-0.005038 1.616222e-02
-0.004913 1.621467e-02
-0.004788 1.626605e-02
-0.004663 1.631636e-02
-0.004538 1.636559e-02
-0.004413 1.641373e-02
-0.004288 1.646079e-02
-0.004163 1.650676e-02
-0.004038 1.655163e-02
-0.003913 1.659541e-02
-0.003788 1.663808e-02
-0.003663 1.667964e-02
-0.003538 1.672009e-02
-0.003413 1.675943e-02
-0.003288 1.679766e-02
-0.003163 1.683476e-02
-0.003038 1.687074e-02
-0.002913 1.690559e-02
-0.002788 1.693931e-02
-0.002663 1.697190e-02
-0.002538 1.700335e-02
-0.002413 1.703366e-02
-0.002288 1.706283e-02
-0.002163 1.709085e-02
-0.002038 1.711773e-02
-0.001913 1.714346e-02
-0.001788 1.716803e-02
-0.001663 1.719145e-02
-0.001538 1.721371e-02
-0.001413 1.723481e-02
-0.001288 1.725475e-02
-0.001163 1.727352e-02
-0.001038 1.729113e-02
-0.000913 1.730757e-02
-0.000788 1.732283e-02
-0.000663 1.733693e-02
-0.000538 1.734985e-02
-0.000413 1.736160e-02
-0.000288 1.737217e-02
-0.000163 1.738157e-02
-0.000038 1.738978e-02
0.000087 1.739681e-02
0.000212 1.740266e-02
0.000337 1.740733e-02
0.000462 1.741081e-02
0.000587 1.741311e-02
0.000712 1.741422e-02
0.000837 1.741414e-02
0.000962 1.741288e-02
0.001087 1.741043e-02
0.001212 1.740679e-02
0.001337 1.740196e-02
0.001462 1.739594e-02
0.001587 1.738874e-02
0.001712 1.738034e-02
0.001837 1.737075e-02
0.001962 1.735997e-02
0.002087 1.734800e-02
0.002212 1.733485e-02
0.002337 1.732050e-02
0.002462 1.730496e-02
0.002587 1.728824e-02
0.002712 1.727033e-02
0.002837 1.725123e-02
0.002962 1.723094e-02
0.003087 1.720947e-02
0.003212 1.718681e-02
0.003337 1.716296e-02
0.003462 1.713794e-02
0.003587 1.711173e-02
0.003712 1.708434e-02
0.003837 1.705577e-02
0.003962 1.702602e-02
0.004087 1.699510e-02
0.004212 1.696300e-02
0.004337 1.692972e-02
0.004462 1.689528e-02
0.004587 1.685966e-02
0.004712 1.682288e-02
0.004837 1.678492e-02
0.004962 1.674581e-02
0.005087 1.670553e-02
0.005212 1.666409e-02
0.005337 1.662150e-02
0.005462 1.657775e-02
0.005587 1.653284e-02
0.005712 1.648679e-02
0.005837 1.643959e-02
0.005962 1.639124e-02
0.006087 1.634175e-02
0.006212 1.629112e-02
0.006337 1.623936e-02
0.006462 1.618646e-02
0.006587 1.613243e-02
0.006712 1.607728e-02
0.006837 1.602100e-02
0.006962 1.596360e-02
0.007087 1.590509e-02
0.007212 1.584546e-02
0.007337 1.578472e-02
0.007462 1.572288e-02
0.007587 1.565993e-02
0.007712 1.559589e-02
0.007837 1.553075e-02
0.007962 1.546452e-02
0.008087 1.539721e-02
0.008212 1.532881e-02
0.008337 1.525934e-02
0.008462 1.518879e-02
0.008587 1.511717e-02
0.008712 1.504449e-02
0.008837 1.497075e-02
0.008962 1.489596e-02
0.009087 1.482011e-02
0.009212 1.474322e-02
0.009337 1.466529e-02
0.009462 1.458632e-02
0.009587 1.450633e-02
0.009712 1.442530e-02
0.009837 1.434326e-02
0.009962 1.426020e-02
0.010087 1.417613e-02
0.010212 1.409106e-02
0.010337 1.400499e-02
0.010462 1.391793e-02
0.010587 1.382988e-02
0.010712 1.374084e-02
0.010837 1.365084e-02
0.010962 1.355986e-02
0.011087 1.346791e-02
0.011212 1.337501e-02
0.011337 1.328116e-02
0.011462 1.318636e-02
0.011587 1.309062e-02
0.011712 1.299395e-02
0.011837 1.289635e-02
0.011962 1.279783e-02
0.012087 1.269840e-02
0.012212 1.259806e-02
0.012337 1.249682e-02
0.012462 1.239468e-02
0.012587 1.229166e-02
0.012712 1.218776e-02
0.012837 1.208298e-02
0.012962 1.197733e-02
0.013087 1.187083e-02
0.013212 1.176348e-02
0.013337 1.165527e-02
0.013462 1.154623e-02
0.013587 1.143636e-02
0.013712 1.132567e-02
0.013837 1.121416e-02
0.013962 1.110184e-02
0.014087 1.098872e-02
0.014212 1.087481e-02
0.014337 1.076011e-02
0.014462 1.064463e-02
0.014587 1.052838e-02
0.014712 1.041137e-02
0.014837 1.029361e-02
0.014962 1.017510e-02
0.015087 1.005585e-02
0.015212 9.935866e-03
0.015337 9.815162e-03
0.015462 9.693744e-03
0.015587 9.571620e-03
0.015712 9.448797e-03
0.015837 9.325286e-03
0.015962 9.201092e-03
0.016087 9.076226e-03
0.016212 8.950696e-03
0.016337 8.824510e-03
0.016462 8.697677e-03
0.016587 8.570204e-03
0.016712 8.442102e-03
0.016837 8.313379e-03
0.016962 8.184044e-03
0.017087 8.054104e-03
0.017212 7.923570e-03
0.017337 7.792450e-03
0.017462 7.660753e-03
0.017587 7.528488e-03
0.017712 7.395665e-03
0.017837 7.262291e-03
0.017962 7.128377e-03
0.018087 6.993931e-03
0.018212 6.858963e-03
0.018337 6.723482e-03
0.018462 6.587497e-03
0.018587 6.451018e-03
0.018712 6.314053e-03
0.018837 6.176613e-03
0.018962 6.038706e-03
0.019087 5.900343e-03
0.019212 5.761533e-03
0.019337 5.622284e-03
0.019462 5.482608e-03
0.019587 5.342513e-03
0.019712 5.202009e-03
0.019837 5.061106e-03
0.019962 4.919813e-03
0.020087 4.778141e-03
0.020212 4.636098e-03
0.020337 4.493695e-03
0.020462 4.350942e-03
0.020587 4.207849e-03
0.020712 4.064424e-03
0.020837 3.920679e-03
0.020962 3.776623e-03
0.021087 3.632267e-03
0.021212 3.487619e-03
0.021337 3.342690e-03
0.021462 3.197491e-03
0.021587 3.052031e-03
0.021712 2.906320e-03
0.021837 2.760368e-03
0.021962 2.614186e-03
0.022087 2.467783e-03
0.022212 2.321170e-03
0.022337 2.174357e-03
0.022462 2.027354e-03
0.022587 1.880172e-03
0.022712 1.732820e-03
0.022837 1.585308e-03
0.022962 1.437648e-03
0.023087 1.289849e-03
0.023212 1.141921e-03
0.023337 9.938751e-04
0.023462 8.457212e-04
0.023587 6.974697e-04
0.023712 5.491308e-04
0.023837 4.007150e-04
0.023962 2.522324e-04
0.024087 1.036935e-04
0.024212 -4.489135e-05
0.024337 -1.935119e-04
0.024462 -3.421578e-04
0.024587 -4.908186e-04
0.024712 -6.394840e-04
0.024837 -7.881436e-04
0.024962 -9.367871e-04
0.025087 -1.085404e-03
0.025212 -1.233984e-03
0.025337 -1.382517e-03
0.025462 -1.530993e-03
0.025587 -1.679400e-03
0.025712 -1.827729e-03
0.025837 -1.975969e-03
0.025962 -2.124111e-03
0.026087 -2.272143e-03
0.026212 -2.420055e-03
0.026337 -2.567837e-03
0.026462 -2.715479e-03
0.026587 -2.862970e-03
0.026712 -3.010301e-03
0.026837 -3.157459e-03
0.026962 -3.304437e-03
0.027087 -3.451222e-03
0.027212 -3.597805e-03
0.027337 -3.744176e-03
0.027462 -3.890324e-03
0.027587 -4.036240e-03
0.027712 -4.181912e-03
0.027837 -4.327331e-03
0.027962 -4.472486e-03
0.028087 -4.617368e-03
0.028212 -4.761966e-03
0.028337 -4.906270e-03
0.028462 -5.050270e-03
0.028587 -5.193956e-03
0.028712 -5.337318e-03
0.028837 -5.480345e-03
0.028962 -5.623029e-03
0.029087 -5.765358e-03
0.029212 -5.907322e-03
0.029337 -6.048913e-03
0.029462 -6.190119e-03
0.029587 -6.330931e-03
0.029712 -6.471339e-03
0.029837 -6.611334e-03
0.029962 -6.750905e-03
0.030087 -6.890042e-03
0.030212 -7.028736e-03
0.030337 -7.166977e-03
0.030462 -7.304756e-03
0.030587 -7.442062e-03
0.030712 -7.578887e-03
0.030837 -7.715220e-03
0.030962 -7.851051e-03
0.031087 -7.986372e-03
0.031212 -8.121173e-03
0.031337 -8.255444e-03
0.031462 -8.389176e-03
0.031587 -8.522360e-03
0.031712 -8.654985e-03
0.031837 -8.787044e-03
0.031962 -8.918526e-03
0.032087 -9.049422e-03
0.032212 -9.179723e-03
0.032337 -9.309420e-03
0.032462 -9.438504e-03
0.032587 -9.566966e-03
0.032712 -9.694797e-03
0.032837 -9.821987e-03
0.032962 -9.948528e-03
0.033087 -1.007441e-02
0.033212 -1.019963e-02
0.033337 -1.032417e-02
0.033462 -1.044802e-02
0.033587 -1.057118e-02
0.033712 -1.069364e-02
0.033837 -1.081539e-02
0.033962 -1.093642e-02
0.034087 -1.105672e-02
0.034212 -1.117629e-02
0.034337 -1.129511e-02
0.034462 -1.141318e-02
0.034587 -1.153049e-02
0.034712 -1.164703e-02
0.034837 -1.176279e-02
0.034962 -1.187776e-02
0.035087 -1.199194e-02
0.035212 -1.210532e-02
0.035337 -1.221789e-02
0.035462 -1.232964e-02
0.035587 -1.244057e-02
0.035712 -1.255066e-02
0.035837 -1.265991e-02
0.035962 -1.276831e-02
0.036087 -1.287585e-02
0.036212 -1.298253e-02
0.036337 -1.308834e-02
0.036462 -1.319327e-02
0.036587 -1.329731e-02
0.036712 -1.340046e-02
0.036837 -1.350271e-02
0.036962 -1.360405e-02
0.037087 -1.370447e-02
0.037212 -1.380397e-02
0.037337 -1.390254e-02
0.037462 -1.400018e-02
0.037587 -1.409687e-02
0.037712 -1.419261e-02
0.037837 -1.428739e-02
0.037962 -1.438121e-02
0.038087 -1.447406e-02
0.038212 -1.456593e-02
0.038337 -1.465682e-02
0.038462 -1.474673e-02
0.038587 -1.483563e-02
0.038712 -1.492353e-02
0.038837 -1.501043e-02
0.038962 -1.509630e-02
0.039087 -1.518116e-02
0.039212 -1.526499e-02
0.039337 -1.534779e-02
0.039462 -1.542955e-02
0.039587 -1.551027e-02
0.039712 -1.558994e-02
0.039837 -1.566855e-02
0.039962 -1.574610e-02
0.040087 -1.582259e-02
0.040212 -1.589800e-02
0.040337 -1.597234e-02
0.040462 -1.604559e-02
0.040587 -1.611776e-02
0.040712 -1.618883e-02
0.040837 -1.625881e-02
0.040962 -1.632768e-02
0.041087 -1.639545e-02
0.041212 -1.646210e-02
0.041337 -1.652764e-02
0.041462 -1.659206e-02
0.041587 -1.665535e-02
0.041712 -1.671751e-02
0.041837 -1.677853e-02
0.041962 -1.683842e-02
0.042087 -1.689717e-02
0.042212 -1.695476e-02
0.042337 -1.701121e-02
0.042462 -1.706650e-02
0.042587 -1.712063e-02
0.042712 -1.717360e-02
0.042837 -1.722540e-02
0.042962 -1.727603e-02
0.043087 -1.732549e-02
0.043212 -1.737377e-02
0.043337 -1.742087e-02
0.043462 -1.746679e-02
0.043587 -1.751152e-02
0.043712 -1.755506e-02
0.043837 -1.759740e-02
0.043962 -1.763855e-02
0.044087 -1.767850e-02
0.044212 -1.771725e-02
0.044337 -1.775479e-02
0.044462 -1.779113e-02
0.044587 -1.782626e-02
0.044712 -1.786017e-02
0.044837 -1.789287e-02
0.044962 -1.792435e-02
0.045087 -1.795462e-02
0.045212 -1.798366e-02
0.045337 -1.801148e-02
0.045462 -1.803808e-02
0.045587 -1.806344e-02
0.045712 -1.808758e-02
0.045837 -1.811049e-02
0.045962 -1.813217e-02
0.046087 -1.815261e-02
0.046212 -1.817182e-02
0.046337 -1.818979e-02
0.046462 -1.820653e-02
0.046587 -1.822203e-02
0.046712 -1.823629e-02
0.046837 -1.824930e-02
0.046962 -1.826108e-02
0.047087 -1.827161e-02
0.047212 -1.828090e-02
0.047337 -1.828895e-02
0.047462 -1.829576e-02
0.047587 -1.830131e-02
0.047712 -1.830563e-02
0.047837 -1.830870e-02
0.047962 -1.831052e-02
0.048087 -1.831110e-02
0.048212 -1.831044e-02
0.048337 -1.830853e-02
0.048462 -1.830537e-02
0.048587 -1.830097e-02
0.048712 -1.829533e-02
0.048837 -1.828844e-02
0.048962 -1.828031e-02
0.049087 -1.827093e-02
0.049212 -1.826032e-02
0.049337 -1.824846e-02
0.049462 -1.823536e-02
0.049587 -1.822102e-02
0.049712 -1.820545e-02
0.049837 -1.818864e-02
0.049962 -1.817059e-02
0.050087 -1.815131e-02
0.050212 -1.813079e-02
0.050337 -1.810905e-02
0.050462 -1.808607e-02
0.050587 -1.806187e-02
0.050712 -1.803643e-02
0.050837 -1.800978e-02
0.050962 -1.798190e-02
0.051087 -1.795280e-02
0.051212 -1.792248e-02
0.051337 -1.789095e-02
0.051462 -1.785820e-02
0.051587 -1.782424e-02
0.051712 -1.778908e-02
0.051837 -1.775270e-02
0.051962 -1.771512e-02
0.052087 -1.767634e-02
0.052212 -1.763636e-02
0.052337 -1.759519e-02
0.052462 -1.755282e-02
0.052587 -1.750927e-02
0.052712 -1.746452e-02
0.052837 -1.741860e-02
0.052962 -1.737149e-02
0.053087 -1.732321e-02
0.053212 -1.727376e-02
0.053337 -1.722313e-02
0.053462 -1.717134e-02
0.053587 -1.711839e-02
0.053712 -1.706428e-02
0.053837 -1.700901e-02
0.053962 -1.695260e-02
0.054087 -1.689504e-02
0.054212 -1.683633e-02
0.054337 -1.677649e-02
0.054462 -1.671552e-02
0.054587 -1.665341e-02
0.054712 -1.659018e-02
0.054837 -1.652583e-02
0.054962 -1.646037e-02
0.055087 -1.639379e-02
0.055212 -1.632611e-02
0.055337 -1.625732e-02
0.055462 -1.618744e-02
0.055587 -1.611647e-02
0.055712 -1.604441e-02
0.055837 -1.597127e-02
0.055962 -1.589706e-02
0.056087 -1.582177e-02
0.056212 -1.574542e-02
0.056337 -1.566801e-02
0.056462 -1.558954e-02
0.056587 -1.551003e-02
0.056712 -1.542947e-02
0.056837 -1.534788e-02
0.056962 -1.526525e-02
0.057087 -1.518160e-02
0.057212 -1.509693e-02
0.057337 -1.501124e-02
0.057462 -1.492455e-02
0.057587 -1.483686e-02
0.057712 -1.474817e-02
0.057837 -1.465849e-02
0.057962 -1.456783e-02
0.058087 -1.447619e-02
0.058212 -1.438359e-02
0.058337 -1.429002e-02
0.058462 -1.419550e-02
0.058587 -1.410003e-02
0.058712 -1.400361e-02
0.058837 -1.390626e-02
0.058962 -1.380798e-02
0.059087 -1.370878e-02