-1.027876e-01 0.000000e+00
-1.026626e-01 0.000000e+00
-1.025376e-01 0.000000e+00
-1.024126e-01 0.000000e+00
-1.022876e-01 0.000000e+00
-1.021626e-01 0.000000e+00
-1.020376e-01 0.000000e+00
-1.019126e-01 0.000000e+00
-1.017876e-01 0.000000e+00
-1.016626e-01 0.000000e+00
-1.015376e-01 0.000000e+00
-1.014126e-01 0.000000e+00
-1.012876e-01 0.000000e+00
-1.011626e-01 0.000000e+00
-1.010376e-01 0.000000e+00
-1.009126e-01 0.000000e+00
-1.007876e-01 0.000000e+00
-1.006626e-01 0.000000e+00
-1.005376e-01 0.000000e+00
-1.004126e-01 0.000000e+00
-1.002876e-01 0.000000e+00
-1.001626e-01 0.000000e+00
-1.000376e-01 0.000000e+00
-9.991263e-02 0.000000e+00
-9.978763e-02 0.000000e+00
-9.966263e-02 0.000000e+00
-9.953763e-02 0.000000e+00
-9.941263e-02 0.000000e+00
-9.928763e-02 0.000000e+00
-9.916263e-02 0.000000e+00
-9.903763e-02 0.000000e+00
-9.891263e-02 0.000000e+00
-9.878763e-02 0.000000e+00
-9.866263e-02 0.000000e+00
-9.853763e-02 0.000000e+00
-9.841263e-02 0.000000e+00
-9.828763e-02 0.000000e+00
-9.816263e-02 0.000000e+00
-9.803763e-02 0.000000e+00
-9.791263e-02 0.000000e+00
-9.778763e-02 0.000000e+00
-9.766263e-02 0.000000e+00
-9.753763e-02 0.000000e+00
-9.741263e-02 0.000000e+00
-9.728763e-02 0.000000e+00
-9.716263e-02 0.000000e+00
-9.703763e-02 0.000000e+00
-9.691263e-02 0.000000e+00
-9.678763e-02 0.000000e+00
-9.666263e-02 0.000000e+00
-9.653763e-02 0.000000e+00
-9.641263e-02 0.000000e+00
-9.628763e-02 0.000000e+00
-9.616263e-02 0.000000e+00
-9.603763e-02 0.000000e+00
-9.591263e-02 0.000000e+00
-9.578763e-02 0.000000e+00
-9.566263e-02 0.000000e+00
-9.553763e-02 0.000000e+00
-9.541263e-02 0.000000e+00
-9.528763e-02 0.000000e+00
-9.516263e-02 0.000000e+00
-9.503763e-02 0.000000e+00
-9.491263e-02 0.000000e+00
-9.478763e-02 0.000000e+00
-9.466263e-02 0.000000e+00
-9.453763e-02 0.000000e+00
-9.441262e-02 0.000000e+00
-9.428763e-02 0.000000e+00
-9.416263e-02 0.000000e+00
-9.403763e-02 0.000000e+00
-9.391263e-02 0.000000e+00
-9.378763e-02 0.000000e+00
-9.366263e-02 0.000000e+00
-9.353763e-02 0.000000e+00
-9.341263e-02 0.000000e+00
-9.328763e-02 0.000000e+00
-9.316263e-02 0.000000e+00
-9.303763e-02 0.000000e+00
-9.291263e-02 0.000000e+00
-9.278763e-02 0.000000e+00
-9.266263e-02 0.000000e+00
-9.253763e-02 0.000000e+00
-9.241263e-02 0.000000e+00
-9.228763e-02 0.000000e+00
-9.216263e-02 0.000000e+00
-9.203763e-02 0.000000e+00
-9.191263e-02 0.000000e+00
-9.178763e-02 0.000000e+00
-9.166263e-02 0.000000e+00
-9.153762e-02 0.000000e+00
-9.141263e-02 0.000000e+00
-9.128763e-02 0.000000e+00
-9.116263e-02 0.000000e+00
-9.103763e-02 0.000000e+00
-9.091263e-02 0.000000e+00
-9.078763e-02 0.000000e+00
-9.066263e-02 0.000000e+00
-9.053763e-02 0.000000e+00
-9.041263e-02 0.000000e+00
-9.028763e-02 0.000000e+00
-9.016263e-02 0.000000e+00
-9.003763e-02 0.000000e+00
-8.991263e-02 0.000000e+00
-8.978763e-02 0.000000e+00
-8.966263e-02 0.000000e+00
-8.953763e-02 0.000000e+00
-8.941263e-02 0.000000e+00
-8.928763e-02 0.000000e+00
-8.916263e-02 0.000000e+00
-8.903763e-02 0.000000e+00
-8.891263e-02 0.000000e+00
-8.878763e-02 0.000000e+00
-8.866262e-02 0.000000e+00
-8.853763e-02 0.000000e+00
-8.841263e-02 0.000000e+00
-8.828763e-02 0.000000e+00
-8.816263e-02 0.000000e+00
-8.803762e-02 0.000000e+00
-8.791263e-02 0.000000e+00
-8.778763e-02 0.000000e+00
-8.766263e-02 0.000000e+00
-8.753763e-02 0.000000e+00
-8.741263e-02 0.000000e+00
-8.728763e-02 0.000000e+00
-8.716263e-02 0.000000e+00
-8.703763e-02 0.000000e+00
-8.691263e-02 0.000000e+00
-8.678763e-02 0.000000e+00
-8.666263e-02 0.000000e+00
-8.653763e-02 0.000000e+00
-8.641262e-02 0.000000e+00
-8.628763e-02 0.000000e+00
-8.616263e-02 0.000000e+00
-8.603763e-02 0.000000e+00
-8.591263e-02 0.000000e+00
-8.578762e-02 0.000000e+00
-8.566263e-02 0.000000e+00
-8.553763e-02 0.000000e+00
-8.541263e-02 0.000000e+00
-8.528763e-02 0.000000e+00
-8.516262e-02 0.000000e+00
-8.503763e-02 0.000000e+00
-8.491263e-02 0.000000e+00
-8.478763e-02 0.000000e+00
-8.466263e-02 0.000000e+00
-8.453763e-02 0.000000e+00
-8.441263e-02 0.000000e+00
-8.428763e-02 0.000000e+00
-8.416263e-02 0.000000e+00
-8.403763e-02 0.000000e+00
-8.391263e-02 0.000000e+00
-8.378763e-02 0.000000e+00
-8.366263e-02 0.000000e+00
-8.353762e-02 0.000000e+00
-8.341263e-02 0.000000e+00
-8.328763e-02 0.000000e+00
-8.316263e-02 0.000000e+00
-8.303763e-02 0.000000e+00
-8.291262e-02 0.000000e+00
-8.278763e-02 0.000000e+00
-8.266263e-02 0.000000e+00
-8.253763e-02 0.000000e+00
-8.241263e-02 0.000000e+00
-8.228762e-02 0.000000e+00
-8.216263e-02 0.000000e+00
-8.203763e-02 0.000000e+00
-8.191263e-02 0.000000e+00
-8.178763e-02 0.000000e+00
-8.166263e-02 0.000000e+00
-8.153763e-02 0.000000e+00
-8.141263e-02 0.000000e+00
-8.128763e-02 0.000000e+00
-8.116263e-02 0.000000e+00
-8.103763e-02 0.000000e+00
-8.091263e-02 0.000000e+00
-8.078763e-02 0.000000e+00
-8.066263e-02 0.000000e+00
-8.053763e-02 0.000000e+00
-8.041263e-02 0.000000e+00
-8.028763e-02 0.000000e+00
-8.016263e-02 0.000000e+00
-8.003762e-02 0.000000e+00
-7.991263e-02 0.000000e+00
-7.978763e-02 0.000000e+00
-7.966263e-02 0.000000e+00
-7.953763e-02 0.000000e+00
-7.941262e-02 0.000000e+00
-7.928763e-02 0.000000e+00
-7.916263e-02 0.000000e+00
-7.903763e-02 0.000000e+00
-7.891263e-02 0.000000e+00
-7.878762e-02 0.000000e+00
-7.866263e-02 0.000000e+00
-7.853763e-02 0.000000e+00
-7.841263e-02 0.000000e+00
-7.828763e-02 0.000000e+00
-7.816263e-02 0.000000e+00
-7.803763e-02 0.000000e+00
-7.791263e-02 0.000000e+00
-7.778763e-02 0.000000e+00
-7.766263e-02 0.000000e+00
-7.753763e-02 0.000000e+00
-7.741263e-02 0.000000e+00
-7.728763e-02 0.000000e+00
-7.716262e-02 0.000000e+00
-7.703763e-02 0.000000e+00
-7.691263e-02 0.000000e+00
-7.678763e-02 0.000000e+00
-7.666263e-02 0.000000e+00
-7.653762e-02 0.000000e+00
-7.641263e-02 0.000000e+00
-7.628763e-02 0.000000e+00
-7.616263e-02 0.000000e+00
-7.603763e-02 0.000000e+00
-7.591262e-02 0.000000e+00
-7.578763e-02 0.000000e+00
-7.566263e-02 0.000000e+00
-7.553763e-02 0.000000e+00
-7.541263e-02 0.000000e+00
-7.528763e-02 0.000000e+00
-7.516263e-02 0.000000e+00
-7.503763e-02 0.000000e+00
-7.491263e-02 0.000000e+00
-7.478763e-02 0.000000e+00
-7.466263e-02 0.000000e+00
-7.453763e-02 0.000000e+00
-7.441263e-02 0.000000e+00
-7.428762e-02 0.000000e+00
-7.416262e-02 0.000000e+00
-7.403763e-02 0.000000e+00
-7.391263e-02 0.000000e+00
-7.378763e-02 0.000000e+00
-7.366262e-02 0.000000e+00
-7.353763e-02 0.000000e+00
-7.341263e-02 0.000000e+00
-7.328763e-02 0.000000e+00
-7.316263e-02 0.000000e+00
-7.303762e-02 0.000000e+00
-7.291263e-02 0.000000e+00
-7.278763e-02 0.000000e+00
-7.266263e-02 0.000000e+00
-7.253763e-02 0.000000e+00
-7.241262e-02 0.000000e+00
-7.228763e-02 0.000000e+00
-7.216263e-02 0.000000e+00
-7.203763e-02 0.000000e+00
-7.191263e-02 0.000000e+00
-7.178763e-02 0.000000e+00
-7.166263e-02 0.000000e+00
-7.153763e-02 0.000000e+00
-7.141262e-02 0.000000e+00
-7.128763e-02 0.000000e+00
-7.116263e-02 0.000000e+00
-7.103763e-02 0.000000e+00
-7.091263e-02 0.000000e+00
-7.078762e-02 0.000000e+00
-7.066263e-02 0.000000e+00
-7.053763e-02 0.000000e+00
-7.041263e-02 0.000000e+00
-7.028763e-02 0.000000e+00
-7.016262e-02 0.000000e+00
-7.003763e-02 0.000000e+00
-6.991263e-02 0.000000e+00
-6.978763e-02 0.000000e+00
-6.966263e-02 0.000000e+00
-6.953762e-02 0.000000e+00
-6.941263e-02 0.000000e+00
-6.928763e-02 0.000000e+00
-6.916262e-02 0.000000e+00
-6.903763e-02 0.000000e+00
-6.891263e-02 0.000000e+00
-6.878763e-02 0.000000e+00
-6.866263e-02 0.000000e+00
-6.853762e-02 0.000000e+00
-6.841263e-02 0.000000e+00
-6.828763e-02 0.000000e+00
-6.816263e-02 0.000000e+00
-6.803763e-02 0.000000e+00
-6.791262e-02 0.000000e+00
-6.778763e-02 0.000000e+00
-6.766263e-02 0.000000e+00
-6.753763e-02 0.000000e+00
-6.741263e-02 0.000000e+00
-6.728762e-02 0.000000e+00
-6.716263e-02 0.000000e+00
-6.703763e-02 0.000000e+00
-6.691263e-02 0.000000e+00
-6.678763e-02 0.000000e+00
-6.666262e-02 0.000000e+00
-6.653763e-02 0.000000e+00
-6.641263e-02 0.000000e+00
-6.628762e-02 0.000000e+00
-6.616263e-02 0.000000e+00
-6.603763e-02 0.000000e+00
-6.591263e-02 0.000000e+00
-6.578763e-02 0.000000e+00
-6.566262e-02 0.000000e+00
-6.553763e-02 0.000000e+00
-6.541263e-02 0.000000e+00
-6.528763e-02 0.000000e+00
-6.516263e-02 0.000000e+00
-6.503762e-02 0.000000e+00
-6.491263e-02 0.000000e+00
-6.478763e-02 0.000000e+00
-6.466263e-02 0.000000e+00
-6.453763e-02 0.000000e+00
-6.441262e-02 0.000000e+00
-6.428763e-02 0.000000e+00
-6.416263e-02 0.000000e+00
-6.403763e-02 0.000000e+00
-6.391263e-02 0.000000e+00
-6.378762e-02 0.000000e+00
-6.366263e-02 0.000000e+00
-6.353763e-02 0.000000e+00
-6.341262e-02 0.000000e+00
-6.328763e-02 0.000000e+00
-6.316262e-02 0.000000e+00
-6.303763e-02 0.000000e+00
-6.291263e-02 0.000000e+00
-6.278762e-02 0.000000e+00
-6.266263e-02 0.000000e+00
-6.253763e-02 0.000000e+00
-6.241263e-02 0.000000e+00
-6.228763e-02 0.000000e+00
-6.216263e-02 0.000000e+00
-6.203763e-02 0.000000e+00
-6.191263e-02 0.000000e+00
-6.178763e-02 0.000000e+00
-6.166263e-02 0.000000e+00
-6.153763e-02 0.000000e+00
-6.141263e-02 0.000000e+00
-6.128763e-02 0.000000e+00
-6.116263e-02 0.000000e+00
-6.103763e-02 0.000000e+00
-6.091263e-02 0.000000e+00
-6.078763e-02 0.000000e+00
-6.066263e-02 0.000000e+00
-6.053763e-02 0.000000e+00
-6.041263e-02 0.000000e+00
-6.028763e-02 0.000000e+00
-6.016263e-02 0.000000e+00
-6.003763e-02 0.000000e+00
-5.991263e-02 0.000000e+00
-5.978763e-02 0.000000e+00
-5.966263e-02 0.000000e+00
-5.953763e-02 0.000000e+00
-5.941263e-02 0.000000e+00
-5.928763e-02 0.000000e+00
-5.916263e-02 0.000000e+00
-5.903763e-02 0.000000e+00
-5.891263e-02 0.000000e+00
-5.878763e-02 0.000000e+00
-5.866263e-02 0.000000e+00
-5.853763e-02 0.000000e+00
-5.841263e-02 0.000000e+00
-5.828763e-02 0.000000e+00
-5.816263e-02 0.000000e+00
-5.803763e-02 0.000000e+00
-5.791263e-02 0.000000e+00
-5.778763e-02 0.000000e+00
-5.766262e-02 0.000000e+00
-5.753763e-02 0.000000e+00
-5.741263e-02 0.000000e+00
-5.728763e-02 0.000000e+00
-5.716263e-02 0.000000e+00
-5.703763e-02 0.000000e+00
-5.691263e-02 0.000000e+00
-5.678762e-02 0.000000e+00
-5.666263e-02 0.000000e+00
-5.653763e-02 0.000000e+00
-5.641263e-02 0.000000e+00
-5.628763e-02 0.000000e+00
-5.616263e-02 0.000000e+00
-5.603763e-02 0.000000e+00
-5.591263e-02 0.000000e+00
-5.578763e-02 0.000000e+00
-5.566263e-02 0.000000e+00
-5.553763e-02 0.000000e+00
-5.541263e-02 0.000000e+00
-5.528763e-02 0.000000e+00
-5.516263e-02 0.000000e+00
-5.503763e-02 0.000000e+00
-5.491263e-02 0.000000e+00
-5.478763e-02 0.000000e+00
-5.466263e-02 0.000000e+00
-5.453763e-02 0.000000e+00
-5.441263e-02 0.000000e+00
-5.428763e-02 0.000000e+00
-5.416263e-02 0.000000e+00
-5.403763e-02 0.000000e+00
-5.391262e-02 0.000000e+00
-5.378763e-02 0.000000e+00
-5.366263e-02 0.000000e+00
-5.353763e-02 0.000000e+00
-5.341263e-02 0.000000e+00
-5.328763e-02 0.000000e+00
-5.316263e-02 0.000000e+00
-5.303762e-02 0.000000e+00
-5.291263e-02 0.000000e+00
-5.278763e-02 0.000000e+00
-5.266263e-02 0.000000e+00
-5.253763e-02 0.000000e+00
-5.241263e-02 0.000000e+00
-5.228763e-02 0.000000e+00
-5.216262e-02 0.000000e+00
-5.203763e-02 0.000000e+00
-5.191263e-02 0.000000e+00
-5.178763e-02 0.000000e+00
-5.166263e-02 0.000000e+00
-5.153763e-02 0.000000e+00
-5.141263e-02 0.000000e+00
-5.128762e-02 0.000000e+00
-5.116263e-02 0.000000e+00
-5.103762e-02 0.000000e+00
-5.091263e-02 0.000000e+00
-5.078763e-02 0.000000e+00
-5.066263e-02 0.000000e+00
-5.053763e-02 0.000000e+00
-5.041263e-02 0.000000e+00
-5.028763e-02 0.000000e+00
-5.016262e-02 0.000000e+00
-5.003763e-02 0.000000e+00
-4.991263e-02 0.000000e+00
-4.978763e-02 0.000000e+00
-4.966263e-02 0.000000e+00
-4.953763e-02 0.000000e+00
-4.941263e-02 0.000000e+00
-4.928762e-02 0.000000e+00
-4.916263e-02 0.000000e+00
-4.903763e-02 0.000000e+00
-4.891263e-02 0.000000e+00
-4.878763e-02 0.000000e+00
-4.866263e-02 0.000000e+00
-4.853763e-02 0.000000e+00
-4.841262e-02 0.000000e+00
-4.828763e-02 0.000000e+00
-4.816263e-02 0.000000e+00
-4.803763e-02 0.000000e+00
-4.791263e-02 0.000000e+00
-4.778763e-02 0.000000e+00
-4.766263e-02 0.000000e+00
-4.753762e-02 0.000000e+00
-4.741263e-02 0.000000e+00
-4.728762e-02 0.000000e+00
-4.716263e-02 0.000000e+00
-4.703763e-02 0.000000e+00
-4.691263e-02 0.000000e+00
-4.678763e-02 0.000000e+00
-4.666262e-02 0.000000e+00
-4.653763e-02 0.000000e+00
-4.641262e-02 0.000000e+00
-4.628763e-02 0.000000e+00
-4.616263e-02 0.000000e+00
-4.603763e-02 0.000000e+00
-4.591263e-02 0.000000e+00
-4.578763e-02 0.000000e+00
-4.566263e-02 0.000000e+00
-4.553762e-02 0.000000e+00
-4.541263e-02 0.000000e+00
-4.528763e-02 0.000000e+00
-4.516263e-02 0.000000e+00
-4.503763e-02 0.000000e+00
-4.491263e-02 0.000000e+00
-4.478763e-02 0.000000e+00
-4.466262e-02 0.000000e+00
-4.453763e-02 0.000000e+00
-4.441263e-02 0.000000e+00
-4.428763e-02 0.000000e+00
-4.416263e-02 0.000000e+00
-4.403763e-02 0.000000e+00
-4.391263e-02 0.000000e+00
-4.378762e-02 0.000000e+00
-4.366263e-02 0.000000e+00
-4.353762e-02 0.000000e+00
-4.341263e-02 0.000000e+00
-4.328763e-02 0.000000e+00
-4.316263e-02 0.000000e+00
-4.303763e-02 0.000000e+00
-4.291262e-02 0.000000e+00
-4.278763e-02 0.000000e+00
-4.266262e-02 0.000000e+00
-4.253763e-02 0.000000e+00
-4.241263e-02 0.000000e+00
-4.228763e-02 0.000000e+00
-4.216263e-02 0.000000e+00
-4.203762e-02 0.000000e+00
-4.191263e-02 0.000000e+00
-4.178762e-02 0.000000e+00
-4.166263e-02 0.000000e+00
-4.153763e-02 0.000000e+00
-4.141263e-02 0.000000e+00
-4.128763e-02 0.000000e+00
-4.116262e-02 0.000000e+00
-4.103763e-02 0.000000e+00
-4.091262e-02 0.000000e+00
-4.078763e-02 0.000000e+00
-4.066263e-02 0.000000e+00
-4.053763e-02 0.000000e+00
-4.041263e-02 0.000000e+00
-4.028763e-02 0.000000e+00
-4.016262e-02 0.000000e+00
-4.003762e-02 0.000000e+00
-3.991263e-02 0.000000e+00
-3.978763e-02 0.000000e+00
-3.966263e-02 0.000000e+00
-3.953762e-02 0.000000e+00
-3.941263e-02 0.000000e+00
-3.928763e-02 0.000000e+00
-3.916263e-02 0.000000e+00
-3.903762e-02 0.000000e+00
-3.891262e-02 0.000000e+00
-3.878763e-02 0.000000e+00
-3.866263e-02 0.000000e+00
-3.853763e-02 0.000000e+00
-3.841262e-02 0.000000e+00
-3.828762e-02 0.000000e+00
-3.816263e-02 0.000000e+00
-3.803763e-02 0.000000e+00
-3.791262e-02 0.000000e+00
-3.778762e-02 0.000000e+00
-3.766263e-02 0.000000e+00
-3.753763e-02 0.000000e+00
-3.741263e-02 0.000000e+00
-3.728762e-02 0.000000e+00
-3.716262e-02 0.000000e+00
-3.703763e-02 0.000000e+00
-3.691263e-02 0.000000e+00
-3.678763e-02 0.000000e+00
-3.666262e-02 0.000000e+00
-3.653762e-02 0.000000e+00
-3.641263e-02 0.000000e+00
-3.628763e-02 0.000000e+00
-3.616262e-02 0.000000e+00
-3.603762e-02 0.000000e+00
-3.591263e-02 0.000000e+00
-3.578763e-02 0.000000e+00
-3.566263e-02 0.000000e+00
-3.553762e-02 0.000000e+00
-3.541262e-02 0.000000e+00
-3.528763e-02 0.000000e+00
-3.516263e-02 0.000000e+00
-3.503762e-02 0.000000e+00
-3.491262e-02 0.000000e+00
-3.478763e-02 0.000000e+00
-3.466263e-02 0.000000e+00
-3.453763e-02 0.000000e+00
-3.441262e-02 0.000000e+00
-3.428762e-02 0.000000e+00
-3.416263e-02 0.000000e+00
-3.403763e-02 0.000000e+00
-3.391263e-02 0.000000e+00
-3.378762e-02 0.000000e+00
-3.366262e-02 0.000000e+00
-3.353763e-02 0.000000e+00
-3.341263e-02 0.000000e+00
-3.328762e-02 0.000000e+00
-3.316262e-02 0.000000e+00
-3.303763e-02 0.000000e+00
-3.291263e-02 0.000000e+00
-3.278763e-02 0.000000e+00
-3.266262e-02 0.000000e+00
-3.253762e-02 0.000000e+00
-3.241263e-02 0.000000e+00
-3.228763e-02 0.000000e+00
-3.216263e-02 0.000000e+00
-3.203762e-02 0.000000e+00
-3.191262e-02 0.000000e+00
-3.178763e-02 0.000000e+00
-3.166263e-02 0.000000e+00
-3.153762e-02 0.000000e+00
-3.141262e-02 0.000000e+00
-3.128763e-02 0.000000e+00
-3.116263e-02 0.000000e+00
-3.103763e-02 0.000000e+00
-3.091262e-02 0.000000e+00
-3.078762e-02 0.000000e+00
-3.066263e-02 0.000000e+00
-3.053763e-02 0.000000e+00
-3.041262e-02 0.000000e+00
-3.028762e-02 0.000000e+00
-3.016263e-02 0.000000e+00
-3.003763e-02 0.000000e+00
-2.991263e-02 0.000000e+00
-2.978762e-02 0.000000e+00
-2.966262e-02 0.000000e+00
-2.953763e-02 0.000000e+00
-2.941263e-02 0.000000e+00
-2.928763e-02 0.000000e+00
-2.916262e-02 0.000000e+00
-2.903762e-02 0.000000e+00
-2.891263e-02 0.000000e+00
-2.878763e-02 0.000000e+00
-2.866262e-02 0.000000e+00
-2.853762e-02 0.000000e+00
-2.841263e-02 0.000000e+00
-2.828763e-02 0.000000e+00
-2.816263e-02 0.000000e+00
-2.803762e-02 0.000000e+00
-2.791262e-02 0.000000e+00
-2.778763e-02 0.000000e+00
-2.766263e-02 0.000000e+00
-2.753762e-02 0.000000e+00
-2.741262e-02 0.000000e+00
-2.728762e-02 0.000000e+00
-2.716263e-02 0.000000e+00
-2.703763e-02 0.000000e+00
-2.691262e-02 0.000000e+00
-2.678762e-02 0.000000e+00
-2.666263e-02 0.000000e+00
-2.653763e-02 0.000000e+00
-2.641263e-02 0.000000e+00
-2.628762e-02 0.000000e+00
-2.616262e-02 0.000000e+00
-2.603763e-02 0.000000e+00
-2.591263e-02 0.000000e+00
-2.578762e-02 0.000000e+00
-2.566262e-02 0.000000e+00
-2.553762e-02 0.000000e+00
-2.541263e-02 0.000000e+00
-2.528763e-02 0.000000e+00
-2.516262e-02 0.000000e+00
-2.503762e-02 0.000000e+00
-2.491263e-02 0.000000e+00
-2.478763e-02 0.000000e+00
-2.466263e-02 0.000000e+00
-2.453762e-02 0.000000e+00
-2.441262e-02 0.000000e+00
-2.428763e-02 0.000000e+00
-2.416263e-02 0.000000e+00
-2.403762e-02 0.000000e+00
-2.391262e-02 0.000000e+00
-2.378763e-02 0.000000e+00
-2.366263e-02 0.000000e+00
-2.353763e-02 0.000000e+00
-2.341262e-02 0.000000e+00
-2.328762e-02 0.000000e+00
-2.316263e-02 0.000000e+00
-2.303763e-02 0.000000e+00
-2.291262e-02 0.000000e+00
-2.278762e-02 0.000000e+00
-2.266262e-02 0.000000e+00
-2.253763e-02 0.000000e+00
-2.241263e-02 0.000000e+00
-2.228762e-02 0.000000e+00
-2.216262e-02 0.000000e+00
-2.203763e-02 0.000000e+00
-2.191263e-02 0.000000e+00
-2.178763e-02 0.000000e+00
-2.166262e-02 0.000000e+00
-2.153762e-02 0.000000e+00
-2.141263e-02 0.000000e+00
-2.128763e-02 0.000000e+00
-2.116262e-02 0.000000e+00
-2.103762e-02 0.000000e+00
-2.091262e-02 0.000000e+00
-2.078763e-02 0.000000e+00
-2.066263e-02 0.000000e+00
-2.053762e-02 0.000000e+00
-2.041262e-02 0.000000e+00
-2.028763e-02 0.000000e+00
-2.016263e-02 0.000000e+00
-2.003762e-02 0.000000e+00
-1.991262e-02 0.000000e+00
-1.978762e-02 0.000000e+00
-1.966263e-02 0.000000e+00
-1.953763e-02 0.000000e+00
-1.941262e-02 0.000000e+00
-1.928762e-02 0.000000e+00
-1.916263e-02 0.000000e+00
-1.903763e-02 0.000000e+00
-1.891263e-02 0.000000e+00
-1.878762e-02 0.000000e+00
-1.866262e-02 0.000000e+00
-1.853763e-02 0.000000e+00
-1.841263e-02 0.000000e+00
-1.828762e-02 0.000000e+00
-1.816262e-02 0.000000e+00
-1.803762e-02 0.000000e+00
-1.791263e-02 0.000000e+00
-1.778763e-02 0.000000e+00
-1.766262e-02 0.000000e+00
-1.753762e-02 0.000000e+00
-1.741263e-02 0.000000e+00
-1.728763e-02 0.000000e+00
-1.716262e-02 0.000000e+00
-1.703762e-02 0.000000e+00
-1.691262e-02 0.000000e+00
-1.678763e-02 0.000000e+00
-1.666263e-02 0.000000e+00
-1.653762e-02 0.000000e+00
-1.641262e-02 0.000000e+00
-1.628762e-02 0.000000e+00
-1.616263e-02 0.000000e+00
-1.603763e-02 0.000000e+00
-1.591262e-02 0.000000e+00
-1.578762e-02 0.000000e+00
-1.566263e-02 0.000000e+00
-1.553763e-02 0.000000e+00
-1.541262e-02 0.000000e+00
-1.528762e-02 0.000000e+00
-1.516262e-02 0.000000e+00
-1.503763e-02 0.000000e+00
-1.491263e-02 0.000000e+00
-1.478762e-02 0.000000e+00
-1.466262e-02 0.000000e+00
-1.453763e-02 0.000000e+00
-1.441263e-02 0.000000e+00
-1.428763e-02 0.000000e+00
-1.416262e-02 0.000000e+00
-1.403762e-02 0.000000e+00
-1.391263e-02 0.000000e+00
-1.378763e-02 0.000000e+00
-1.366262e-02 0.000000e+00
-1.353762e-02 0.000000e+00
-1.341262e-02 0.000000e+00
-1.328763e-02 0.000000e+00
-1.316263e-02 0.000000e+00
-1.303762e-02 0.000000e+00
-1.291262e-02 0.000000e+00
-1.278763e-02 0.000000e+00
-1.266263e-02 0.000000e+00
-1.253762e-02 0.000000e+00
-1.241262e-02 0.000000e+00
-1.228762e-02 0.000000e+00
-1.216263e-02 0.000000e+00
-1.203763e-02 0.000000e+00
-1.191262e-02 1.401298e-45
-1.178762e-02 2.802597e-45
-1.166262e-02 4.203895e-45
-1.153763e-02 5.605194e-45
-1.141263e-02 5.605194e-45
-1.128762e-02 5.605194e-45
-1.116262e-02 4.203895e-45
-1.103763e-02 2.802597e-45
-1.091263e-02 0.000000e+00
-1.078762e-02 -2.802597e-45
-1.066262e-02 -7.006492e-45
-1.053762e-02 -1.121039e-44
-1.041263e-02 -1.541428e-44
-1.028763e-02 -1.821688e-44
-1.016262e-02 -1.821688e-44
-1.003762e-02 -1.681558e-44
-9.912625e-03 -1.261169e-44
-9.787627e-03 -4.203895e-45
-9.662621e-03 7.006492e-45
-9.537622e-03 2.242078e-44
-9.412624e-03 3.923636e-44
-9.287626e-03 5.605194e-44
-9.162627e-03 7.006492e-44
-9.037621e-03 8.127531e-44
-8.912623e-03 8.688050e-44
-8.787625e-03 8.407791e-44
-8.662626e-03 7.006492e-44
-8.537628e-03 4.624285e-44
-8.412622e-03 1.121039e-44
-8.287624e-03 -3.503246e-44
-8.162625e-03 -8.968310e-44
-8.037627e-03 -1.499389e-43
-7.912621e-03 -2.101948e-43
-7.787623e-03 -2.648454e-43
-7.662624e-03 -3.054831e-43
-7.537626e-03 -3.279038e-43
-7.412627e-03 -3.222986e-43
-7.287621e-03 -2.830623e-43
-7.162623e-03 -2.045896e-43
-7.037625e-03 -8.688050e-44
-6.912626e-03 7.006492e-44
-6.787628e-03 2.606415e-43
-6.662622e-03 4.736389e-43
-6.537624e-03 6.950440e-43
-6.412625e-03 9.052388e-43
-6.287627e-03 1.079000e-42
-6.162621e-03 1.192505e-42
-6.037623e-03 1.219130e-42
-5.912624e-03 1.133650e-42
-5.787626e-03 9.150479e-43
-5.662628e-03 5.507103e-43
-5.537622e-03 4.203895e-44
-5.412623e-03 -5.983544e-43
-5.287625e-03 -1.343845e-42
-5.162627e-03 -2.145388e-42
-5.037621e-03 -2.941325e-42
-4.912622e-03 -3.653185e-42
-4.787624e-03 -4.189882e-42
-4.662625e-03 -4.456129e-42
-4.537627e-03 -4.358038e-42
-4.412621e-03 -3.817137e-42
-4.287623e-03 -2.774571e-42
-4.162624e-03 -1.207919e-42
-4.037626e-03 8.631999e-43
-3.912628e-03 3.363116e-42
-3.787622e-03 6.154503e-42
-3.662623e-03 9.041178e-42
-3.537625e-03 1.176810e-41
-3.412627e-03 1.403541e-41
-3.287621e-03 1.551237e-41
-3.162622e-03 1.586270e-41
-3.037624e-03 1.478090e-41
-2.912626e-03 1.202314e-41
-2.787627e-03 7.446500e-42
-2.662621e-03 1.050974e-42
-2.537623e-03 -6.991078e-42
-2.412625e-03 -1.630691e-41
-2.287626e-03 -2.631078e-41
-2.162620e-03 -3.621095e-41
-2.037622e-03 -4.503913e-41
-1.912624e-03 -5.169530e-41
-1.787625e-03 -5.502479e-41
-1.662627e-03 -5.392196e-41
-1.537621e-03 -4.743535e-41
-1.412623e-03 -3.490634e-41
-1.287624e-03 -1.609672e-41
-1.162626e-03 8.688050e-42
-1.037627e-03 3.850208e-41
-9.126216e-04 7.169744e-41
-7.876232e-04 1.059185e-40
-6.626248e-04 1.381610e-40
-5.376264e-04 1.649048e-40
-4.126206e-04 1.823356e-40
-2.876222e-04 1.866319e-40
-1.626238e-04 1.743341e-40
-3.762543e-05 1.427531e-40
8.737296e-05 9.040757e-41
2.123788e-04 1.743636e-41
3.373772e-04 -7.403200e-41
4.623756e-04 -1.796353e-40
5.873740e-04 -2.926682e-40
7.123798e-04 -4.041919e-40
8.373782e-04 -5.033660e-40
9.623766e-04 -5.780398e-40
1.087375e-03 -6.156072e-40
1.212373e-03 -6.040956e-40
1.337379e-03 -5.334351e-40
1.462378e-03 -3.968463e-40
1.587376e-03 -1.922231e-40
1.712374e-03 7.662580e-41
1.837373e-03 3.989931e-40
1.962379e-03 7.567446e-40
2.087377e-03 1.124358e-39
2.212375e-03 1.469672e-39
2.337374e-03 1.755435e-39
2.462380e-03 1.941666e-39
2.587378e-03 1.988810e-39
2.712376e-03 1.861542e-39
2.837375e-03 1.533022e-39
2.962373e-03 9.892789e-40
3.087379e-03 2.333652e-40
3.212377e-03 -7.111828e-40
3.337376e-03 -1.798054e-39
3.462374e-03 -2.957492e-39
3.587373e-03 -4.097692e-39
3.712378e-03 -5.108565e-39
3.837377e-03 -5.868031e-39
3.962375e-03 -6.250806e-39
4.087374e-03 -6.139400e-39
4.212379e-03 -5.436755e-39
4.337378e-03 -4.079718e-39
4.462376e-03 -2.052245e-39
4.587375e-03 6.029507e-40
4.712373e-03 3.775733e-39
4.837379e-03 7.284300e-39
4.962377e-03 1.087673e-38
5.087376e-03 1.423938e-38
5.212374e-03 1.701282e-38
5.337380e-03 1.881544e-38
5.462378e-03 1.927415e-38
5.587377e-03 1.806072e-38
5.712375e-03 1.493177e-38
5.837373e-03 9.769208e-39
5.962379e-03 2.617648e-39
6.087378e-03 -6.285446e-39
6.212376e-03 -1.649114e-38
6.337374e-03 -2.733614e-38
6.462373e-03 -3.795912e-38
6.587379e-03 -4.733886e-38
6.712377e-03 -5.435507e-38
6.837375e-03 -5.787114e-38
6.962374e-03 -5.683550e-38
7.087380e-03 -5.039618e-38
7.212378e-03 -3.802069e-38
7.337376e-03 -1.961109e-38
7.462375e-03 4.397242e-39
7.587373e-03 3.296579e-38
7.712379e-03 6.442426e-38
7.837377e-03 9.649440e-38
7.962376e-03 1.263746e-37
8.087374e-03 1.508901e-37
8.212380e-03 1.667080e-37
8.337379e-03 1.706110e-37
8.462377e-03 1.598156e-37
8.587375e-03 1.323152e-37
8.712374e-03 8.722179e-38
8.837380e-03 2.507309e-38
8.962378e-03 -5.192851e-38
9.087376e-03 -1.397819e-37
9.212375e-03 -2.326912e-37
9.337373e-03 -3.232351e-37
9.462379e-03 -4.027185e-37
9.587377e-03 -4.617125e-37
9.712376e-03 -4.907673e-37
9.837374e-03 -4.812710e-37
9.962380e-03 -4.264014e-37
1.008738e-02 -3.221030e-37
1.021238e-02 -1.680058e-37
1.033738e-02 3.181237e-38
1.046237e-02 2.683177e-37
1.058738e-02 5.273658e-37
1.071238e-02 7.899817e-37
1.083738e-02 1.033136e-36
1.096237e-02 1.231044e-36
1.108738e-02 1.356966e-36
1.121238e-02 1.385453e-36
1.133738e-02 1.294902e-36
1.146238e-02 1.070274e-36
1.158737e-02 7.057244e-37
1.171238e-02 2.069238e-37
1.183738e-02 -4.072295e-37
1.196238e-02 -1.103763e-36
1.208737e-02 -1.835902e-36
1.221237e-02 -2.544642e-36
1.233738e-02 -3.161738e-36
1.246238e-02 -3.614102e-36
1.258738e-02 -3.829487e-36
1.271237e-02 -3.743172e-36
1.283738e-02 -3.305251e-36
1.296238e-02 -2.487956e-36
1.308738e-02 -1.292385e-36
1.321238e-02 2.461263e-37
1.333737e-02 2.054696e-36
1.346238e-02 4.022367e-36
1.358738e-02 6.002916e-36
1.371238e-02 7.821378e-36
1.383737e-02 9.284402e-36
1.396237e-02 1.019420e-35
1.408738e-02 1.036553e-35
1.421238e-02 9.644681e-36
1.433738e-02 7.929228e-36
1.446237e-02 5.186785e-36
1.458738e-02 1.470963e-36
1.471238e-02 -3.067461e-36
1.483738e-02 -8.176054e-36
1.496238e-02 -1.350456e-35
1.508737e-02 -1.861826e-35
1.521238e-02 -2.302137e-35
1.533738e-02 -2.619023e-35
1.546238e-02 -2.761521e-35
1.558737e-02 -2.684885e-35
1.571238e-02 -2.355745e-35
1.583738e-02 -1.757170e-35
1.596238e-02 -8.931904e-36
1.608738e-02 2.077431e-36
1.621237e-02 1.490857e-35
1.633738e-02 2.875175e-35
1.646238e-02 4.256003e-35
1.658738e-02 5.509991e-35
1.671237e-02 6.502791e-35
1.683737e-02 7.099062e-35
1.696238e-02 7.174388e-35
1.708738e-02 6.628342e-35
1.721238e-02 5.397756e-35
1.733737e-02 3.469037e-35
1.746238e-02 8.882453e-36
1.758738e-02 -2.232360e-35
1.771238e-02 -5.712520e-35
1.783738e-02 -9.307941e-35
1.796237e-02 -1.272067e-34
1.808738e-02 -1.561612e-34
1.821238e-02 -1.764635e-34
1.833738e-02 -1.847869e-34
1.846237e-02 -1.782803e-34
1.858738e-02 -1.549051e-34
1.871238e-02 -1.137601e-34
1.883738e-02 -5.536078e-35
1.896238e-02 1.815828e-35
1.908737e-02 1.029494e-34
1.921238e-02 1.934945e-34
1.933738e-02 2.828037e-34
1.946238e-02 3.627793e-34
1.958738e-02 4.247422e-34
1.971237e-02 4.601003e-34
1.983738e-02 4.611259e-34
1.996238e-02 4.217901e-34
2.008738e-02 3.385903e-34
2.021237e-02 2.112959e-34
2.033738e-02 4.353169e-35
2.046238e-02 -1.568813e-34
2.058738e-02 -3.778983e-34
2.071238e-02 -6.035942e-34
2.083737e-02 -8.149091e-34
2.096238e-02 -9.907997e-34
2.108738e-02 -1.109762e-33
2.121238e-02 -1.151655e-33
2.133738e-02 -1.099710e-33
2.146237e-02 -9.425866e-34
2.158738e-02 -6.762895e-34
2.171238e-02 -3.057644e-34
2.183738e-02 1.540320e-34
2.196237e-02 6.777671e-34
2.208738e-02 1.230224e-33
2.221237e-02 1.767748e-33
2.233738e-02 2.240687e-33
2.246238e-02 2.596763e-33
2.258737e-02 2.785242e-33
2.271238e-02 2.761666e-33
2.283737e-02 2.492807e-33
2.296238e-02 1.961466e-33
2.308738e-02 1.170644e-33
2.321237e-02 1.466178e-34
2.333738e-02 -1.059517e-33
2.346237e-02 -2.372252e-33
2.358738e-02 -3.694284e-33
2.371238e-02 -4.911486e-33
2.383737e-02 -5.900179e-33
2.396238e-02 -6.536441e-33
2.408738e-02 -6.706952e-33
2.421238e-02 -6.320685e-33
2.433738e-02 -5.320540e-33
2.446237e-02 -3.693885e-33
2.458738e-02 -1.480894e-33
2.471238e-02 1.220402e-33
2.483737e-02 4.253341e-33
2.496238e-02 7.406885e-33
2.508737e-02 1.042534e-32
2.521238e-02 1.302359e-32
2.533738e-02 1.490732e-32
2.546237e-02 1.579737e-32
2.558738e-02 1.545663e-32
2.571237e-02 1.371751e-32
2.583738e-02 1.050779e-32
2.596238e-02 5.872154e-33
2.608737e-02 -1.304542e-35
2.621238e-02 -6.834290e-33
2.633737e-02 -1.414650e-32
2.646238e-02 -2.139109e-32
2.658738e-02 -2.792685e-32
2.671237e-02 -3.307294e-32
2.683738e-02 -3.616212e-32
2.696238e-02 -3.660130e-32
2.708738e-02 -3.393497e-32
2.721238e-02 -2.790667e-32
2.733737e-02 -1.851263e-32
2.746238e-02 -6.041713e-33
2.758738e-02 8.904013e-33
2.771237e-02 2.541291e-32
2.783738e-02 4.229504e-32
2.796237e-02 5.814265e-32
2.808738e-02 7.141912e-32
2.821238e-02 8.057296e-32
2.833737e-02 8.417086e-32
2.846238e-02 8.104086e-32
2.858737e-02 7.041499e-32
2.871238e-02 5.205845e-32
2.883738e-02 2.637223e-32
2.896237e-02 -5.544037e-33
2.908738e-02 -4.188059e-32
2.921237e-02 -8.016621e-32
2.933738e-02 -1.173821e-31
2.946238e-02 -1.501411e-31
2.958737e-02 -1.749261e-31
2.971238e-02 -1.883761e-31
2.983738e-02 -1.876027e-31
2.996238e-02 -1.705129e-31
3.008738e-02 -1.361116e-31
3.021237e-02 -8.475462e-32
3.033738e-02 -1.832181e-32
3.046238e-02 5.971622e-32
3.058738e-02 1.443599e-31
3.071238e-02 2.292847e-31
3.083737e-02 3.071919e-31
3.096238e-02 3.702957e-31
3.108738e-02 4.109262e-31
3.121237e-02 4.222131e-31
3.133738e-02 3.988005e-31
3.146237e-02 3.375382e-31
3.158738e-02 2.380827e-31
3.171238e-02 1.033447e-31
3.183737e-02 -6.028067e-32
3.196238e-02 -2.429520e-31
3.208737e-02 -4.317245e-31
3.221238e-02 -6.112138e-31
3.233738e-02 -7.645690e-31
3.246237e-02 -8.747168e-31
3.258738e-02 -9.258076e-31
3.271239e-02 -9.047678e-31
3.283738e-02 -8.028388e-31
3.296238e-02 -6.169673e-31
3.308737e-02 -3.509031e-31
3.321238e-02 -1.586758e-32
3.333738e-02 3.693285e-31
3.346238e-02 7.788079e-31
3.358738e-02 1.180839e-30
3.371237e-02 1.539731e-30
3.383738e-02 1.818344e-30
3.396238e-02 1.981094e-30
3.408737e-02 1.997252e-30
3.421238e-02 1.844298e-30
3.433737e-02 1.511048e-30
3.446238e-02 1.000255e-30
3.458738e-02 3.303655e-31
3.471237e-02 -4.638194e-31
3.483738e-02 -1.331812e-30
3.496237e-02 -2.209553e-30
3.508738e-02 -3.023006e-30
3.521238e-02 -3.693123e-30
3.533737e-02 -4.141954e-30
3.546238e-02 -4.299528e-30
3.558737e-02 -4.111019e-30
3.571238e-02 -3.543620e-30
3.583738e-02 -2.592483e-30
3.596237e-02 -1.285091e-30
3.608738e-02 3.165624e-31
3.621238e-02 2.116448e-30
3.633738e-02 3.987996e-30