-1.027876e-01 0.000000e+00
-1.026626e-01 0.000000e+00
-1.025376e-01 0.000000e+00
-1.024126e-01 0.000000e+00
-1.022876e-01 0.000000e+00
-1.021626e-01 0.000000e+00
-1.020376e-01 0.000000e+00
-1.019126e-01 0.000000e+00
-1.017876e-01 0.000000e+00
-1.016626e-01 0.000000e+00
-1.015376e-01 0.000000e+00
-1.014126e-01 0.000000e+00
-1.012876e-01 0.000000e+00
-1.011626e-01 0.000000e+00
-1.010376e-01 0.000000e+00
-1.009126e-01 0.000000e+00
-1.007876e-01 0.000000e+00
-1.006626e-01 0.000000e+00
-1.005376e-01 0.000000e+00
-1.004126e-01 0.000000e+00
-1.002876e-01 0.000000e+00
-1.001626e-01 0.000000e+00
-1.000376e-01 0.000000e+00
-9.991263e-02 0.000000e+00
-9.978763e-02 0.000000e+00
-9.966263e-02 0.000000e+00
-9.953763e-02 0.000000e+00
-9.941263e-02 0.000000e+00
-9.928763e-02 0.000000e+00
-9.916263e-02 0.000000e+00
-9.903763e-02 0.000000e+00
-9.891263e-02 0.000000e+00
-9.878763e-02 0.000000e+00
-9.866263e-02 0.000000e+00
-9.853763e-02 0.000000e+00
-9.841263e-02 0.000000e+00
-9.828763e-02 0.000000e+00
-9.816263e-02 0.000000e+00
-9.803763e-02 0.000000e+00
-9.791263e-02 0.000000e+00
-9.778763e-02 0.000000e+00
-9.766263e-02 0.000000e+00
-9.753763e-02 0.000000e+00
-9.741263e-02 0.000000e+00
-9.728763e-02 0.000000e+00
-9.716263e-02 0.000000e+00
-9.703763e-02 0.000000e+00
-9.691263e-02 0.000000e+00
-9.678763e-02 0.000000e+00
-9.666263e-02 0.000000e+00
-9.653763e-02 0.000000e+00
-9.641263e-02 0.000000e+00
-9.628763e-02 0.000000e+00
-9.616263e-02 0.000000e+00
-9.603763e-02 0.000000e+00
-9.591263e-02 0.000000e+00
-9.578763e-02 0.000000e+00
-9.566263e-02 0.000000e+00
-9.553763e-02 0.000000e+00
-9.541263e-02 0.000000e+00
-9.528763e-02 0.000000e+00
-9.516263e-02 0.000000e+00
-9.503763e-02 0.000000e+00
-9.491263e-02 0.000000e+00
-9.478763e-02 0.000000e+00
-9.466263e-02 0.000000e+00
-9.453763e-02 0.000000e+00
-9.441262e-02 0.000000e+00
-9.428763e-02 0.000000e+00
-9.416263e-02 0.000000e+00
-9.403763e-02 0.000000e+00
-9.391263e-02 0.000000e+00
-9.378763e-02 0.000000e+00
-9.366263e-02 0.000000e+00
-9.353763e-02 0.000000e+00
-9.341263e-02 0.000000e+00
-9.328763e-02 0.000000e+00
-9.316263e-02 0.000000e+00
-9.303763e-02 0.000000e+00
-9.291263e-02 0.000000e+00
-9.278763e-02 0.000000e+00
-9.266263e-02 0.000000e+00
-9.253763e-02 0.000000e+00
-9.241263e-02 0.000000e+00
-9.228763e-02 0.000000e+00
-9.216263e-02 0.000000e+00
-9.203763e-02 0.000000e+00
-9.191263e-02 0.000000e+00
-9.178763e-02 0.000000e+00
-9.166263e-02 0.000000e+00
-9.153762e-02 0.000000e+00
-9.141263e-02 0.000000e+00
-9.128763e-02 0.000000e+00
-9.116263e-02 0.000000e+00
-9.103763e-02 0.000000e+00
-9.091263e-02 0.000000e+00
-9.078763e-02 0.000000e+00
-9.066263e-02 0.000000e+00
-9.053763e-02 0.000000e+00
-9.041263e-02 0.000000e+00
-9.028763e-02 0.000000e+00
-9.016263e-02 0.000000e+00
-9.003763e-02 0.000000e+00
-8.991263e-02 0.000000e+00
-8.978763e-02 0.000000e+00
-8.966263e-02 0.000000e+00
-8.953763e-02 0.000000e+00
-8.941263e-02 0.000000e+00
-8.928763e-02 0.000000e+00
-8.916263e-02 0.000000e+00
-8.903763e-02 0.000000e+00
-8.891263e-02 0.000000e+00
-8.878763e-02 0.000000e+00
-8.866262e-02 0.000000e+00
-8.853763e-02 0.000000e+00
-8.841263e-02 0.000000e+00
-8.828763e-02 0.000000e+00
-8.816263e-02 0.000000e+00
-8.803762e-02 0.000000e+00
-8.791263e-02 0.000000e+00
-8.778763e-02 0.000000e+00
-8.766263e-02 0.000000e+00
-8.753763e-02 0.000000e+00
-8.741263e-02 0.000000e+00
-8.728763e-02 0.000000e+00
-8.716263e-02 0.000000e+00
-8.703763e-02 0.000000e+00
-8.691263e-02 0.000000e+00
-8.678763e-02 0.000000e+00
-8.666263e-02 0.000000e+00
-8.653763e-02 0.000000e+00
-8.641262e-02 0.000000e+00
-8.628763e-02 0.000000e+00
-8.616263e-02 0.000000e+00
-8.603763e-02 0.000000e+00
-8.591263e-02 0.000000e+00
-8.578762e-02 0.000000e+00
-8.566263e-02 0.000000e+00
-8.553763e-02 0.000000e+00
-8.541263e-02 0.000000e+00
-8.528763e-02 0.000000e+00
-8.516262e-02 0.000000e+00
-8.503763e-02 0.000000e+00
-8.491263e-02 0.000000e+00
-8.478763e-02 0.000000e+00
-8.466263e-02 0.000000e+00
-8.453763e-02 0.000000e+00
-8.441263e-02 0.000000e+00
-8.428763e-02 0.000000e+00
-8.416263e-02 0.000000e+00
-8.403763e-02 0.000000e+00
-8.391263e-02 0.000000e+00
-8.378763e-02 0.000000e+00
-8.366263e-02 0.000000e+00
-8.353762e-02 0.000000e+00
-8.341263e-02 0.000000e+00
-8.328763e-02 0.000000e+00
-8.316263e-02 0.000000e+00
-8.303763e-02 0.000000e+00
-8.291262e-02 0.000000e+00
-8.278763e-02 0.000000e+00
-8.266263e-02 0.000000e+00
-8.253763e-02 0.000000e+00
-8.241263e-02 0.000000e+00
-8.228762e-02 0.000000e+00
-8.216263e-02 0.000000e+00
-8.203763e-02 0.000000e+00
-8.191263e-02 0.000000e+00
-8.178763e-02 0.000000e+00
-8.166263e-02 0.000000e+00
-8.153763e-02 0.000000e+00
-8.141263e-02 0.000000e+00
-8.128763e-02 0.000000e+00
-8.116263e-02 0.000000e+00
-8.103763e-02 0.000000e+00
-8.091263e-02 0.000000e+00
-8.078763e-02 0.000000e+00
-8.066263e-02 0.000000e+00
-8.053763e-02 0.000000e+00
-8.041263e-02 0.000000e+00
-8.028763e-02 0.000000e+00
-8.016263e-02 0.000000e+00
-8.003762e-02 0.000000e+00
-7.991263e-02 0.000000e+00
-7.978763e-02 0.000000e+00
-7.966263e-02 0.000000e+00
-7.953763e-02 0.000000e+00
-7.941262e-02 0.000000e+00
-7.928763e-02 0.000000e+00
-7.916263e-02 0.000000e+00
-7.903763e-02 0.000000e+00
-7.891263e-02 0.000000e+00
-7.878762e-02 0.000000e+00
-7.866263e-02 0.000000e+00
-7.853763e-02 0.000000e+00
-7.841263e-02 0.000000e+00
-7.828763e-02 0.000000e+00
-7.816263e-02 0.000000e+00
-7.803763e-02 0.000000e+00
-7.791263e-02 0.000000e+00
-7.778763e-02 0.000000e+00
-7.766263e-02 0.000000e+00
-7.753763e-02 0.000000e+00
-7.741263e-02 0.000000e+00
-7.728763e-02 0.000000e+00
-7.716262e-02 0.000000e+00
-7.703763e-02 0.000000e+00
-7.691263e-02 0.000000e+00
-7.678763e-02 0.000000e+00
-7.666263e-02 0.000000e+00
-7.653762e-02 0.000000e+00
-7.641263e-02 0.000000e+00
-7.628763e-02 0.000000e+00
-7.616263e-02 0.000000e+00
-7.603763e-02 0.000000e+00
-7.591262e-02 0.000000e+00
-7.578763e-02 0.000000e+00
-7.566263e-02 0.000000e+00
-7.553763e-02 0.000000e+00
-7.541263e-02 0.000000e+00
-7.528763e-02 0.000000e+00
-7.516263e-02 0.000000e+00
-7.503763e-02 0.000000e+00
-7.491263e-02 0.000000e+00
-7.478763e-02 0.000000e+00
-7.466263e-02 0.000000e+00
-7.453763e-02 0.000000e+00
-7.441263e-02 0.000000e+00
-7.428762e-02 0.000000e+00
-7.416262e-02 0.000000e+00
-7.403763e-02 0.000000e+00
-7.391263e-02 0.000000e+00
-7.378763e-02 0.000000e+00
-7.366262e-02 0.000000e+00
-7.353763e-02 0.000000e+00
-7.341263e-02 0.000000e+00
-7.328763e-02 0.000000e+00
-7.316263e-02 0.000000e+00
-7.303762e-02 0.000000e+00
-7.291263e-02 0.000000e+00
-7.278763e-02 0.000000e+00
-7.266263e-02 0.000000e+00
-7.253763e-02 0.000000e+00
-7.241262e-02 0.000000e+00
-7.228763e-02 0.000000e+00
-7.216263e-02 0.000000e+00
-7.203763e-02 0.000000e+00
-7.191263e-02 0.000000e+00
-7.178763e-02 0.000000e+00
-7.166263e-02 0.000000e+00
-7.153763e-02 0.000000e+00
-7.141262e-02 0.000000e+00
-7.128763e-02 0.000000e+00
-7.116263e-02 0.000000e+00
-7.103763e-02 0.000000e+00
-7.091263e-02 0.000000e+00
-7.078762e-02 0.000000e+00
-7.066263e-02 0.000000e+00
-7.053763e-02 0.000000e+00
-7.041263e-02 0.000000e+00
-7.028763e-02 0.000000e+00
-7.016262e-02 0.000000e+00
-7.003763e-02 0.000000e+00
-6.991263e-02 0.000000e+00
-6.978763e-02 0.000000e+00
-6.966263e-02 0.000000e+00
-6.953762e-02 0.000000e+00
-6.941263e-02 0.000000e+00
-6.928763e-02 0.000000e+00
-6.916262e-02 0.000000e+00
-6.903763e-02 0.000000e+00
-6.891263e-02 0.000000e+00
-6.878763e-02 0.000000e+00
-6.866263e-02 0.000000e+00
-6.853762e-02 0.000000e+00
-6.841263e-02 0.000000e+00
-6.828763e-02 0.000000e+00
-6.816263e-02 0.000000e+00
-6.803763e-02 0.000000e+00
-6.791262e-02 0.000000e+00
-6.778763e-02 0.000000e+00
-6.766263e-02 0.000000e+00
-6.753763e-02 0.000000e+00
-6.741263e-02 0.000000e+00
-6.728762e-02 0.000000e+00
-6.716263e-02 0.000000e+00
-6.703763e-02 0.000000e+00
-6.691263e-02 0.000000e+00
-6.678763e-02 0.000000e+00
-6.666262e-02 0.000000e+00
-6.653763e-02 0.000000e+00
-6.641263e-02 0.000000e+00
-6.628762e-02 0.000000e+00
-6.616263e-02 0.000000e+00
-6.603763e-02 0.000000e+00
-6.591263e-02 0.000000e+00
-6.578763e-02 0.000000e+00
-6.566262e-02 0.000000e+00
-6.553763e-02 0.000000e+00
-6.541263e-02 0.000000e+00
-6.528763e-02 0.000000e+00
-6.516263e-02 0.000000e+00
-6.503762e-02 0.000000e+00
-6.491263e-02 0.000000e+00
-6.478763e-02 0.000000e+00
-6.466263e-02 0.000000e+00
-6.453763e-02 0.000000e+00
-6.441262e-02 0.000000e+00
-6.428763e-02 0.000000e+00
-6.416263e-02 0.000000e+00
-6.403763e-02 0.000000e+00
-6.391263e-02 0.000000e+00
-6.378762e-02 0.000000e+00
-6.366263e-02 0.000000e+00
-6.353763e-02 0.000000e+00
-6.341262e-02 0.000000e+00
-6.328763e-02 0.000000e+00
-6.316262e-02 0.000000e+00
-6.303763e-02 0.000000e+00
-6.291263e-02 0.000000e+00
-6.278762e-02 0.000000e+00
-6.266263e-02 0.000000e+00
-6.253763e-02 0.000000e+00
-6.241263e-02 0.000000e+00
-6.228763e-02 0.000000e+00
-6.216263e-02 0.000000e+00
-6.203763e-02 0.000000e+00
-6.191263e-02 0.000000e+00
-6.178763e-02 0.000000e+00
-6.166263e-02 0.000000e+00
-6.153763e-02 0.000000e+00
-6.141263e-02 0.000000e+00
-6.128763e-02 0.000000e+00
-6.116263e-02 0.000000e+00
-6.103763e-02 0.000000e+00
-6.091263e-02 0.000000e+00
-6.078763e-02 0.000000e+00
-6.066263e-02 0.000000e+00
-6.053763e-02 0.000000e+00
-6.041263e-02 0.000000e+00
-6.028763e-02 0.000000e+00
-6.016263e-02 0.000000e+00
-6.003763e-02 0.000000e+00
-5.991263e-02 0.000000e+00
-5.978763e-02 0.000000e+00
-5.966263e-02 0.000000e+00
-5.953763e-02 0.000000e+00
-5.941263e-02 0.000000e+00
-5.928763e-02 0.000000e+00
-5.916263e-02 0.000000e+00
-5.903763e-02 0.000000e+00
-5.891263e-02 0.000000e+00
-5.878763e-02 0.000000e+00
-5.866263e-02 0.000000e+00
-5.853763e-02 0.000000e+00
-5.841263e-02 0.000000e+00
-5.828763e-02 0.000000e+00
-5.816263e-02 0.000000e+00
-5.803763e-02 0.000000e+00
-5.791263e-02 0.000000e+00
-5.778763e-02 0.000000e+00
-5.766262e-02 0.000000e+00
-5.753763e-02 0.000000e+00
-5.741263e-02 0.000000e+00
-5.728763e-02 0.000000e+00
-5.716263e-02 0.000000e+00
-5.703763e-02 0.000000e+00
-5.691263e-02 0.000000e+00
-5.678762e-02 0.000000e+00
-5.666263e-02 0.000000e+00
-5.653763e-02 0.000000e+00
-5.641263e-02 0.000000e+00
-5.628763e-02 0.000000e+00
-5.616263e-02 0.000000e+00
-5.603763e-02 0.000000e+00
-5.591263e-02 0.000000e+00
-5.578763e-02 0.000000e+00
-5.566263e-02 0.000000e+00
-5.553763e-02 0.000000e+00
-5.541263e-02 0.000000e+00
-5.528763e-02 0.000000e+00
-5.516263e-02 0.000000e+00
-5.503763e-02 0.000000e+00
-5.491263e-02 0.000000e+00
-5.478763e-02 0.000000e+00
-5.466263e-02 0.000000e+00
-5.453763e-02 0.000000e+00
-5.441263e-02 0.000000e+00
-5.428763e-02 0.000000e+00
-5.416263e-02 0.000000e+00
-5.403763e-02 0.000000e+00
-5.391262e-02 0.000000e+00
-5.378763e-02 0.000000e+00
-5.366263e-02 0.000000e+00
-5.353763e-02 0.000000e+00
-5.341263e-02 0.000000e+00
-5.328763e-02 0.000000e+00
-5.316263e-02 0.000000e+00
-5.303762e-02 0.000000e+00
-5.291263e-02 0.000000e+00
-5.278763e-02 0.000000e+00
-5.266263e-02 0.000000e+00
-5.253763e-02 0.000000e+00
-5.241263e-02 0.000000e+00
-5.228763e-02 0.000000e+00
-5.216262e-02 0.000000e+00
-5.203763e-02 0.000000e+00
-5.191263e-02 0.000000e+00
-5.178763e-02 0.000000e+00
-5.166263e-02 0.000000e+00
-5.153763e-02 0.000000e+00
-5.141263e-02 0.000000e+00
-5.128762e-02 0.000000e+00
-5.116263e-02 0.000000e+00
-5.103762e-02 0.000000e+00
-5.091263e-02 0.000000e+00
-5.078763e-02 0.000000e+00
-5.066263e-02 0.000000e+00
-5.053763e-02 0.000000e+00
-5.041263e-02 0.000000e+00
-5.028763e-02 0.000000e+00
-5.016262e-02 0.000000e+00
-5.003763e-02 0.000000e+00
-4.991263e-02 0.000000e+00
-4.978763e-02 0.000000e+00
-4.966263e-02 0.000000e+00
-4.953763e-02 0.000000e+00
-4.941263e-02 0.000000e+00
-4.928762e-02 0.000000e+00
-4.916263e-02 0.000000e+00
-4.903763e-02 0.000000e+00
-4.891263e-02 0.000000e+00
-4.878763e-02 0.000000e+00
-4.866263e-02 0.000000e+00
-4.853763e-02 0.000000e+00
-4.841262e-02 0.000000e+00
-4.828763e-02 0.000000e+00
-4.816263e-02 0.000000e+00
-4.803763e-02 0.000000e+00
-4.791263e-02 0.000000e+00
-4.778763e-02 0.000000e+00
-4.766263e-02 0.000000e+00
-4.753762e-02 0.000000e+00
-4.741263e-02 0.000000e+00
-4.728762e-02 0.000000e+00
-4.716263e-02 0.000000e+00
-4.703763e-02 0.000000e+00
-4.691263e-02 0.000000e+00
-4.678763e-02 0.000000e+00
-4.666262e-02 0.000000e+00
-4.653763e-02 0.000000e+00
-4.641262e-02 0.000000e+00
-4.628763e-02 0.000000e+00
-4.616263e-02 0.000000e+00
-4.603763e-02 0.000000e+00
-4.591263e-02 0.000000e+00
-4.578763e-02 0.000000e+00
-4.566263e-02 0.000000e+00
-4.553762e-02 0.000000e+00
-4.541263e-02 0.000000e+00
-4.528763e-02 0.000000e+00
-4.516263e-02 0.000000e+00
-4.503763e-02 0.000000e+00
-4.491263e-02 0.000000e+00
-4.478763e-02 0.000000e+00
-4.466262e-02 0.000000e+00
-4.453763e-02 0.000000e+00
-4.441263e-02 0.000000e+00
-4.428763e-02 0.000000e+00
-4.416263e-02 0.000000e+00
-4.403763e-02 0.000000e+00
-4.391263e-02 0.000000e+00
-4.378762e-02 0.000000e+00
-4.366263e-02 0.000000e+00
-4.353762e-02 0.000000e+00
-4.341263e-02 0.000000e+00
-4.328763e-02 0.000000e+00
-4.316263e-02 0.000000e+00
-4.303763e-02 0.000000e+00
-4.291262e-02 0.000000e+00
-4.278763e-02 0.000000e+00
-4.266262e-02 0.000000e+00
-4.253763e-02 0.000000e+00
-4.241263e-02 0.000000e+00
-4.228763e-02 0.000000e+00
-4.216263e-02 0.000000e+00
-4.203762e-02 0.000000e+00
-4.191263e-02 0.000000e+00
-4.178762e-02 0.000000e+00
-4.166263e-02 0.000000e+00
-4.153763e-02 0.000000e+00
-4.141263e-02 0.000000e+00
-4.128763e-02 0.000000e+00
-4.116262e-02 0.000000e+00
-4.103763e-02 0.000000e+00
-4.091262e-02 0.000000e+00
-4.078763e-02 0.000000e+00
-4.066263e-02 0.000000e+00
-4.053763e-02 0.000000e+00
-4.041263e-02 0.000000e+00
-4.028763e-02 0.000000e+00
-4.016262e-02 0.000000e+00
-4.003762e-02 0.000000e+00
-3.991263e-02 0.000000e+00
-3.978763e-02 0.000000e+00
-3.966263e-02 0.000000e+00
-3.953762e-02 0.000000e+00
-3.941263e-02 0.000000e+00
-3.928763e-02 0.000000e+00
-3.916263e-02 0.000000e+00
-3.903762e-02 0.000000e+00
-3.891262e-02 0.000000e+00
-3.878763e-02 0.000000e+00
-3.866263e-02 0.000000e+00
-3.853763e-02 0.000000e+00
-3.841262e-02 0.000000e+00
-3.828762e-02 0.000000e+00
-3.816263e-02 0.000000e+00
-3.803763e-02 0.000000e+00
-3.791262e-02 0.000000e+00
-3.778762e-02 0.000000e+00
-3.766263e-02 0.000000e+00
-3.753763e-02 0.000000e+00
-3.741263e-02 0.000000e+00
-3.728762e-02 0.000000e+00
-3.716262e-02 0.000000e+00
-3.703763e-02 0.000000e+00
-3.691263e-02 0.000000e+00
-3.678763e-02 0.000000e+00
-3.666262e-02 0.000000e+00
-3.653762e-02 0.000000e+00
-3.641263e-02 0.000000e+00
-3.628763e-02 0.000000e+00
-3.616262e-02 0.000000e+00
-3.603762e-02 0.000000e+00
-3.591263e-02 0.000000e+00
-3.578763e-02 0.000000e+00
-3.566263e-02 0.000000e+00
-3.553762e-02 0.000000e+00
-3.541262e-02 0.000000e+00
-3.528763e-02 0.000000e+00
-3.516263e-02 0.000000e+00
-3.503762e-02 0.000000e+00
-3.491262e-02 0.000000e+00
-3.478763e-02 0.000000e+00
-3.466263e-02 0.000000e+00
-3.453763e-02 0.000000e+00
-3.441262e-02 0.000000e+00
-3.428762e-02 0.000000e+00
-3.416263e-02 0.000000e+00
-3.403763e-02 0.000000e+00
-3.391263e-02 0.000000e+00
-3.378762e-02 0.000000e+00
-3.366262e-02 0.000000e+00
-3.353763e-02 0.000000e+00
-3.341263e-02 0.000000e+00
-3.328762e-02 0.000000e+00
-3.316262e-02 0.000000e+00
-3.303763e-02 0.000000e+00
-3.291263e-02 0.000000e+00
-3.278763e-02 0.000000e+00
-3.266262e-02 0.000000e+00
-3.253762e-02 0.000000e+00
-3.241263e-02 0.000000e+00
-3.228763e-02 0.000000e+00
-3.216263e-02 0.000000e+00
-3.203762e-02 0.000000e+00
-3.191262e-02 0.000000e+00
-3.178763e-02 0.000000e+00
-3.166263e-02 0.000000e+00
-3.153762e-02 0.000000e+00
-3.141262e-02 0.000000e+00
-3.128763e-02 0.000000e+00
-3.116263e-02 0.000000e+00
-3.103763e-02 0.000000e+00
-3.091262e-02 0.000000e+00
-3.078762e-02 0.000000e+00
-3.066263e-02 0.000000e+00
-3.053763e-02 0.000000e+00
-3.041262e-02 0.000000e+00
-3.028762e-02 0.000000e+00
-3.016263e-02 0.000000e+00
-3.003763e-02 0.000000e+00
-2.991263e-02 0.000000e+00
-2.978762e-02 0.000000e+00
-2.966262e-02 0.000000e+00
-2.953763e-02 0.000000e+00
-2.941263e-02 0.000000e+00
-2.928763e-02 0.000000e+00
-2.916262e-02 0.000000e+00
-2.903762e-02 0.000000e+00
-2.891263e-02 0.000000e+00
-2.878763e-02 0.000000e+00
-2.866262e-02 0.000000e+00
-2.853762e-02 0.000000e+00
-2.841263e-02 0.000000e+00
-2.828763e-02 0.000000e+00
-2.816263e-02 0.000000e+00
-2.803762e-02 0.000000e+00
-2.791262e-02 0.000000e+00
-2.778763e-02 0.000000e+00
-2.766263e-02 0.000000e+00
-2.753762e-02 0.000000e+00
-2.741262e-02 0.000000e+00
-2.728762e-02 0.000000e+00
-2.716263e-02 0.000000e+00
-2.703763e-02 0.000000e+00
-2.691262e-02 0.000000e+00
-2.678762e-02 0.000000e+00
-2.666263e-02 0.000000e+00
-2.653763e-02 0.000000e+00
-2.641263e-02 0.000000e+00
-2.628762e-02 0.000000e+00
-2.616262e-02 0.000000e+00
-2.603763e-02 0.000000e+00
-2.591263e-02 0.000000e+00
-2.578762e-02 0.000000e+00
-2.566262e-02 0.000000e+00
-2.553762e-02 0.000000e+00
-2.541263e-02 0.000000e+00
-2.528763e-02 0.000000e+00
-2.516262e-02 0.000000e+00
-2.503762e-02 0.000000e+00
-2.491263e-02 0.000000e+00
-2.478763e-02 0.000000e+00
-2.466263e-02 0.000000e+00
-2.453762e-02 0.000000e+00
-2.441262e-02 0.000000e+00
-2.428763e-02 0.000000e+00
-2.416263e-02 0.000000e+00
-2.403762e-02 0.000000e+00
-2.391262e-02 0.000000e+00
-2.378763e-02 0.000000e+00
-2.366263e-02 0.000000e+00
-2.353763e-02 0.000000e+00
-2.341262e-02 0.000000e+00
-2.328762e-02 0.000000e+00
-2.316263e-02 0.000000e+00
-2.303763e-02 0.000000e+00
-2.291262e-02 0.000000e+00
-2.278762e-02 0.000000e+00
-2.266262e-02 0.000000e+00
-2.253763e-02 0.000000e+00
-2.241263e-02 0.000000e+00
-2.228762e-02 0.000000e+00
-2.216262e-02 0.000000e+00
-2.203763e-02 0.000000e+00
-2.191263e-02 0.000000e+00
-2.178763e-02 0.000000e+00
-2.166262e-02 0.000000e+00
-2.153762e-02 0.000000e+00
-2.141263e-02 0.000000e+00
-2.128763e-02 0.000000e+00
-2.116262e-02 0.000000e+00
-2.103762e-02 0.000000e+00
-2.091262e-02 0.000000e+00
-2.078763e-02 0.000000e+00
-2.066263e-02 0.000000e+00
-2.053762e-02 0.000000e+00
-2.041262e-02 0.000000e+00
-2.028763e-02 0.000000e+00
-2.016263e-02 0.000000e+00
-2.003762e-02 0.000000e+00
-1.991262e-02 0.000000e+00
-1.978762e-02 0.000000e+00
-1.966263e-02 0.000000e+00
-1.953763e-02 0.000000e+00
-1.941262e-02 0.000000e+00
-1.928762e-02 0.000000e+00
-1.916263e-02 0.000000e+00
-1.903763e-02 0.000000e+00
-1.891263e-02 0.000000e+00
-1.878762e-02 0.000000e+00
-1.866262e-02 0.000000e+00
-1.853763e-02 0.000000e+00
-1.841263e-02 0.000000e+00
-1.828762e-02 0.000000e+00
-1.816262e-02 0.000000e+00
-1.803762e-02 0.000000e+00
-1.791263e-02 0.000000e+00
-1.778763e-02 0.000000e+00
-1.766262e-02 0.000000e+00
-1.753762e-02 0.000000e+00
-1.741263e-02 0.000000e+00
-1.728763e-02 0.000000e+00
-1.716262e-02 0.000000e+00
-1.703762e-02 0.000000e+00
-1.691262e-02 0.000000e+00
-1.678763e-02 0.000000e+00
-1.666263e-02 0.000000e+00
-1.653762e-02 0.000000e+00
-1.641262e-02 0.000000e+00
-1.628762e-02 0.000000e+00
-1.616263e-02 0.000000e+00
-1.603763e-02 0.000000e+00
-1.591262e-02 0.000000e+00
-1.578762e-02 0.000000e+00
-1.566263e-02 0.000000e+00
-1.553763e-02 0.000000e+00
-1.541262e-02 0.000000e+00
-1.528762e-02 0.000000e+00
-1.516262e-02 0.000000e+00
-1.503763e-02 0.000000e+00
-1.491263e-02 0.000000e+00
-1.478762e-02 0.000000e+00
-1.466262e-02 0.000000e+00
-1.453763e-02 0.000000e+00
-1.441263e-02 0.000000e+00
-1.428763e-02 0.000000e+00
-1.416262e-02 0.000000e+00
-1.403762e-02 0.000000e+00
-1.391263e-02 0.000000e+00
-1.378763e-02 0.000000e+00
-1.366262e-02 0.000000e+00
-1.353762e-02 0.000000e+00
-1.341262e-02 0.000000e+00
-1.328763e-02 0.000000e+00
-1.316263e-02 0.000000e+00
-1.303762e-02 0.000000e+00
-1.291262e-02 0.000000e+00
-1.278763e-02 0.000000e+00
-1.266263e-02 0.000000e+00
-1.253762e-02 0.000000e+00
-1.241262e-02 0.000000e+00
-1.228762e-02 0.000000e+00
-1.216263e-02 0.000000e+00
-1.203763e-02 0.000000e+00
-1.191262e-02 0.000000e+00
-1.178762e-02 0.000000e+00
-1.166262e-02 0.000000e+00
-1.153763e-02 0.000000e+00
-1.141263e-02 0.000000e+00
-1.128762e-02 0.000000e+00
-1.116262e-02 0.000000e+00
-1.103763e-02 0.000000e+00
-1.091263e-02 0.000000e+00
-1.078762e-02 0.000000e+00
-1.066262e-02 0.000000e+00
-1.053762e-02 0.000000e+00
-1.041263e-02 0.000000e+00
-1.028763e-02 0.000000e+00
-1.016262e-02 0.000000e+00
-1.003762e-02 0.000000e+00
-9.912625e-03 0.000000e+00
-9.787627e-03 0.000000e+00
-9.662621e-03 0.000000e+00
-9.537622e-03 0.000000e+00
-9.412624e-03 0.000000e+00
-9.287626e-03 0.000000e+00
-9.162627e-03 0.000000e+00
-9.037621e-03 0.000000e+00
-8.912623e-03 0.000000e+00
-8.787625e-03 0.000000e+00
-8.662626e-03 0.000000e+00
-8.537628e-03 0.000000e+00
-8.412622e-03 0.000000e+00
-8.287624e-03 0.000000e+00
-8.162625e-03 0.000000e+00
-8.037627e-03 0.000000e+00
-7.912621e-03 0.000000e+00
-7.787623e-03 0.000000e+00
-7.662624e-03 0.000000e+00
-7.537626e-03 0.000000e+00
-7.412627e-03 0.000000e+00
-7.287621e-03 0.000000e+00
-7.162623e-03 0.000000e+00
-7.037625e-03 0.000000e+00
-6.912626e-03 0.000000e+00
-6.787628e-03 0.000000e+00
-6.662622e-03 0.000000e+00
-6.537624e-03 0.000000e+00
-6.412625e-03 0.000000e+00
-6.287627e-03 0.000000e+00
-6.162621e-03 0.000000e+00
-6.037623e-03 0.000000e+00
-5.912624e-03 0.000000e+00
-5.787626e-03 0.000000e+00
-5.662628e-03 0.000000e+00
-5.537622e-03 0.000000e+00
-5.412623e-03 0.000000e+00
-5.287625e-03 0.000000e+00
-5.162627e-03 0.000000e+00
-5.037621e-03 0.000000e+00
-4.912622e-03 0.000000e+00
-4.787624e-03 0.000000e+00
-4.662625e-03 0.000000e+00
-4.537627e-03 0.000000e+00
-4.412621e-03 0.000000e+00
-4.287623e-03 0.000000e+00
-4.162624e-03 0.000000e+00
-4.037626e-03 0.000000e+00
-3.912628e-03 1.401298e-45
-3.787622e-03 2.802597e-45
-3.662623e-03 4.203895e-45
-3.537625e-03 5.605194e-45
-3.412627e-03 7.006492e-45
-3.287621e-03 8.407791e-45
-3.162622e-03 8.407791e-45
-3.037624e-03 8.407791e-45
-2.912626e-03 7.006492e-45
-2.787627e-03 5.605194e-45
-2.662621e-03 2.802597e-45
-2.537623e-03 0.000000e+00
-2.412625e-03 -4.203895e-45
-2.287626e-03 -8.407791e-45
-2.162620e-03 -1.261169e-44
-2.037622e-03 -1.681558e-44
-1.912624e-03 -2.101948e-44
-1.787625e-03 -2.382207e-44
-1.662627e-03 -2.382207e-44
-1.537621e-03 -2.101948e-44
-1.412623e-03 -1.681558e-44
-1.287624e-03 -9.809089e-45
-1.162626e-03 0.000000e+00
-1.037627e-03 1.261169e-44
-9.126216e-04 2.662467e-44
-7.876232e-04 4.063766e-44
-6.626248e-04 5.465064e-44
-5.376264e-04 6.586103e-44
-4.126206e-04 7.426882e-44
-2.876222e-04 7.707142e-44
-1.626238e-04 7.426882e-44
-3.762543e-05 6.305843e-44
8.737296e-05 4.344025e-44
2.123788e-04 1.541428e-44
3.373772e-04 -2.101948e-44
4.623756e-04 -6.305843e-44
5.873740e-04 -1.107026e-43
7.123798e-04 -1.583467e-43
8.373782e-04 -2.031883e-43
9.623766e-04 -2.396220e-43
1.087375e-03 -2.620428e-43
1.212373e-03 -2.648454e-43
1.337379e-03 -2.424246e-43
1.462378e-03 -1.933792e-43
1.587376e-03 -1.163078e-43
1.712374e-03 -9.809089e-45
1.837373e-03 1.219130e-43
1.962379e-03 2.718519e-43
2.087377e-03 4.301986e-43
2.212375e-03 5.857428e-43
2.337374e-03 7.216687e-43
2.462380e-03 8.211609e-43
2.587378e-03 8.674037e-43
2.712376e-03 8.435817e-43
2.837375e-03 7.370830e-43
2.962373e-03 5.380986e-43
3.087379e-03 2.452272e-43
3.212377e-03 -1.345247e-43
3.337376e-03 -5.871441e-43
3.462374e-03 -1.087408e-42
3.587373e-03 -1.597480e-42
3.712378e-03 -2.073922e-42
3.837377e-03 -2.464884e-42
3.962375e-03 -2.715716e-42
4.087374e-03 -2.773170e-42
4.212379e-03 -2.589600e-42
4.337378e-03 -2.128572e-42
4.462376e-03 -1.373272e-42
4.587375e-03 -3.279038e-43
4.712373e-03 9.753037e-43
4.837379e-03 2.470489e-42
4.962377e-03 4.063766e-42
5.087376e-03 5.627615e-42
5.212374e-03 7.014900e-42
5.337380e-03 8.060269e-42
5.462378e-03 8.592762e-42
5.587377e-03 8.455435e-42
5.712375e-03 7.516565e-42
5.837373e-03 5.690673e-42
5.962379e-03 2.956740e-42
6.087378e-03 -6.291830e-43
6.212376e-03 -4.921360e-42
6.337374e-03 -9.677367e-42
6.462373e-03 -1.456229e-41
6.587379e-03 -1.915715e-41
6.712377e-03 -2.298129e-41
6.837375e-03 -2.552886e-41
6.962374e-03 -2.629537e-41
7.087380e-03 -2.483661e-41
7.212378e-03 -2.082470e-41
7.337376e-03 -1.408865e-41
7.462375e-03 -4.673330e-42
7.587373e-03 7.122800e-42
7.712379e-03 2.072380e-41
7.837377e-03 3.527068e-41
7.962376e-03 4.963820e-41
8.087374e-03 6.249091e-41
8.212380e-03 7.234764e-41
8.337379e-03 7.770620e-41
8.462377e-03 7.715549e-41
8.587375e-03 6.951982e-41
8.712374e-03 5.405088e-41
8.837380e-03 3.055531e-41
8.962378e-03 -4.848493e-43
9.087376e-03 -3.780003e-41
9.212375e-03 -7.929808e-41
9.337373e-03 -1.220797e-40
9.462379e-03 -1.625436e-40
9.587377e-03 -1.965727e-40
9.712376e-03 -2.198035e-40
9.837374e-03 -2.279843e-40
9.962380e-03 -2.173484e-40
1.008738e-02 -1.850947e-40
1.021238e-02 -1.297714e-40
1.033738e-02 -5.175696e-41
1.046237e-02 4.645585e-41
1.058738e-02 1.600633e-40
1.071238e-02 2.819286e-40
1.083738e-02 4.027528e-40
1.096237e-02 5.114725e-40
1.108738e-02 5.959596e-40
1.121238e-02 6.438336e-40
1.133738e-02 6.436879e-40
1.146238e-02 5.860244e-40
1.158737e-02 4.647659e-40
1.171238e-02 2.782937e-40
1.183738e-02 3.057773e-41
1.196238e-02 -2.681791e-40
1.208737e-02 -6.011865e-40
1.221237e-02 -9.453089e-40
1.233738e-02 -1.272016e-39
1.246238e-02 -1.548764e-39
1.258738e-02 -1.741091e-39
1.271237e-02 -1.815616e-39
1.283738e-02 -1.743176e-39
1.296238e-02 -1.501777e-39
1.308738e-02 -1.080526e-39
1.321238e-02 -4.825399e-40
1.333737e-02 2.727305e-40
1.346238e-02 1.148011e-39
1.358738e-02 2.088236e-39
1.371238e-02 3.022231e-39
1.383737e-02 3.865695e-39
1.396237e-02 4.526390e-39
1.408738e-02 4.911103e-39
1.421238e-02 4.933860e-39
1.433738e-02 4.524379e-39
1.446237e-02 3.637547e-39
1.458738e-02 2.262095e-39
1.471238e-02 4.288702e-40
1.483738e-02 -1.785155e-39
1.496238e-02 -4.254824e-39
1.508737e-02 -6.808664e-39
1.521238e-02 -9.236372e-39
1.533738e-02 -1.129962e-38
1.546238e-02 -1.274847e-38
1.558737e-02 -1.334094e-38
1.571238e-02 -1.286636e-38
1.583738e-02 -1.117016e-38
1.596238e-02 -8.176452e-39
1.608738e-02 -3.911447e-39
1.621237e-02 1.480577e-39
1.633738e-02 7.730050e-39
1.646238e-02 1.444185e-38
1.658738e-02 2.110865e-38
1.671237e-02 2.713299e-38
1.683737e-02 3.186601e-38
1.696238e-02 3.465847e-38
1.708738e-02 3.491089e-38
1.721238e-02 3.214213e-38
1.733737e-02 2.604984e-38
1.746238e-02 1.657158e-38
1.758738e-02 3.933005e-39
1.771238e-02 -1.132205e-38
1.783738e-02 -2.831986e-38
1.796237e-02 -4.588017e-38
1.808738e-02 -6.255581e-38
1.821238e-02 -7.672390e-38
1.833738e-02 -8.669436e-38
1.846237e-02 -9.084314e-38
1.858738e-02 -8.776861e-38
1.871238e-02 -7.646475e-38
1.883738e-02 -5.646752e-38
1.896238e-02 -2.799078e-38
1.908737e-02 7.954476e-39
1.921238e-02 4.953189e-38
1.933738e-02 9.408630e-38
1.946238e-02 1.382395e-37
1.958738e-02 1.780463e-37
1.971237e-02 2.092666e-37
1.983738e-02 2.276631e-37
1.996238e-02 2.293933e-37
2.008738e-02 2.114078e-37
2.021237e-02 1.718591e-37
2.033738e-02 1.104773e-37
2.046238e-02 2.884334e-38
2.058738e-02 -6.939926e-38
2.071238e-02 -1.785284e-37
2.083737e-02 -2.908798e-37
2.096238e-02 -3.971823e-37
2.108738e-02 -4.871181e-37
2.121238e-02 -5.500328e-37
2.133738e-02 -5.758231e-37
2.146237e-02 -5.559084e-37
2.158738e-02 -4.842016e-37
2.171238e-02 -3.581640e-37
2.183738e-02 -1.795790e-37
2.196237e-02 4.491468e-38
2.208738e-02 3.035201e-37
2.221237e-02 5.794671e-37
2.233738e-02 8.516279e-37
2.246238e-02 1.095639e-36
2.258737e-02 1.285515e-36
2.271238e-02 1.395672e-36
2.283737e-02 1.403152e-36
2.296238e-02 1.290191e-36
2.308738e-02 1.046411e-36
2.321237e-02 6.711908e-37
2.333738e-02 1.753191e-37
2.346237e-02 -4.182097e-37
2.358738e-02 -1.074041e-36
2.371238e-02 -1.745530e-36
2.383737e-02 -2.376875e-36
2.396238e-02 -2.906639e-36
2.408738e-02 -3.271861e-36
2.421238e-02 -3.413911e-36
2.433738e-02 -3.283896e-36
2.446237e-02 -2.848452e-36
2.458738e-02 -2.095349e-36
2.471238e-02 -1.037744e-36
2.483737e-02 2.823227e-37
2.496238e-02 1.793186e-36
2.508737e-02 3.395018e-36
2.521238e-02 4.963685e-36
2.533738e-02 6.357817e-36
2.546237e-02 7.428782e-36
2.558738e-02 8.031726e-36
2.571237e-02 8.037986e-36
2.583738e-02 7.351591e-36
2.596238e-02 5.920477e-36
2.608737e-02 3.748811e-36
2.621238e-02 9.055410e-37
2.633737e-02 -2.471009e-36
2.646238e-02 -6.174039e-36
2.658738e-02 -9.935745e-36
2.671237e-02 -1.344012e-35
2.683738e-02 -1.634407e-35
2.696238e-02 -1.830119e-35
2.708738e-02 -1.899128e-35
2.721238e-02 -1.815465e-35
2.733737e-02 -1.562196e-35
2.746238e-02 -1.134491e-35
2.758738e-02 -5.417699e-36
2.771237e-02 1.908488e-36
2.783738e-02 1.022147e-35
2.796237e-02 1.895914e-35
2.808738e-02 2.743326e-35
2.821238e-02 3.487365e-35
2.833737e-02 4.047554e-35
2.846238e-02 4.347415e-35
2.858737e-02 4.320494e-35
2.871238e-02 3.918056e-35
2.883738e-02 3.116626e-35
2.896237e-02 1.923485e-35
2.908738e-02 3.808794e-36
2.921237e-02 -1.432468e-35
2.933738e-02 -3.402306e-35
2.946238e-02 -5.383101e-35
2.958737e-02 -7.206266e-35
2.971238e-02 -8.690982e-35
2.983738e-02 -9.657556e-35
2.996238e-02 -9.943698e-35
3.008738e-02 -9.421026e-35
3.021237e-02 -8.011189e-35
3.033738e-02 -5.699963e-35
3.046238e-02 -2.549084e-35
3.058738e-02 1.298310e-35
3.071238e-02 5.617317e-35
3.083737e-02 1.010885e-34
3.096238e-02 1.441282e-34
3.108738e-02 1.813096e-34
3.121237e-02 2.085650e-34
3.133738e-02 2.220551e-34
3.146237e-02 2.185713e-34
3.158738e-02 1.958583e-34
3.171238e-02 1.529870e-34
3.183737e-02 9.062129e-35
3.196238e-02 1.119382e-35
3.208737e-02 -8.102263e-35
3.221238e-02 -1.800304e-34
3.233738e-02 -2.783479e-34
3.246237e-02 -3.674720e-34
3.258738e-02 -4.383910e-34
3.271239e-02 -4.823488e-34
3.283738e-02 -4.915921e-34
3.296238e-02 -4.602188e-34
3.308737e-02 -3.849425e-34
3.321238e-02 -2.657373e-34
3.333738e-02 -1.063747e-34
3.346238e-02 8.540497e-35
3.358738e-02 2.979402e-34
3.371237e-02 5.160706e-34
3.383738e-02 7.219631e-34
3.396238e-02 8.962176e-34
3.408737e-02 1.019393e-33
3.421238e-02 1.073528e-33
3.433737e-02 1.043968e-33
3.446238e-02 9.211335e-34
3.458738e-02 7.020389e-34
3.471237e-02 3.915057e-34
3.483738e-02 2.852043e-36
3.496237e-02 -4.419695e-34
3.508738e-02 -9.130151e-34
3.521238e-02 -1.373883e-33
3.533737e-02 -1.783806e-33
3.546238e-02 -2.100451e-33
3.558737e-02 -2.283545e-33
3.571238e-02 -2.298399e-33
3.583738e-02 -2.119731e-33
3.596237e-02 -1.735352e-33
3.608738e-02 -1.148793e-33
3.621238e-02 -3.814074e-34
3.633738e-02 5.270150e-34
3.646238e-02 1.518950e-33
3.658737e-02 2.521616e-33