-0.120000 4.242524e-05
-0.119000 4.244808e-05
-0.118000 4.246560e-05
-0.117000 4.247782e-05
-0.116000 4.248474e-05
-0.115000 4.248638e-05
-0.114000 4.248273e-05
-0.113000 4.247382e-05
-0.112000 4.245964e-05
-0.111000 4.244022e-05
-0.110000 4.241556e-05
-0.109000 4.238567e-05
-0.108000 4.235056e-05
-0.107000 4.231025e-05
-0.106000 4.226475e-05
-0.105000 4.221408e-05
-0.104000 4.215825e-05
-0.103000 4.209727e-05
-0.102000 4.203116e-05
-0.101000 4.195994e-05
-0.100000 4.188362e-05
-0.099000 4.180223e-05
-0.098000 4.171577e-05
-0.097000 4.162428e-05
-0.096000 4.152776e-05
-0.095000 4.142624e-05
-0.094000 4.131973e-05
-0.093000 4.120827e-05
-0.092000 4.109187e-05
-0.091000 4.097055e-05
-0.090000 4.084434e-05
-0.089000 4.071325e-05
-0.088000 4.057732e-05
-0.087000 4.043657e-05
-0.086000 4.029102e-05
-0.085000 4.014070e-05
-0.084000 3.998563e-05
-0.083000 3.982584e-05
-0.082000 3.966137e-05
-0.081000 3.949222e-05
-0.080000 3.931844e-05
-0.079000 3.914005e-05
-0.078000 3.895709e-05
-0.077000 3.876957e-05
-0.076000 3.857754e-05
-0.075000 3.838102e-05
-0.074000 3.818004e-05
-0.073000 3.797464e-05
-0.072000 3.776484e-05
-0.071000 3.755068e-05
-0.070000 3.733220e-05
-0.069000 3.710942e-05
-0.068000 3.688239e-05
-0.067000 3.665113e-05
-0.066000 3.641567e-05
-0.065000 3.617607e-05
-0.064000 3.593234e-05
-0.063000 3.568454e-05
-0.062000 3.543268e-05
-0.061000 3.517682e-05
-0.060000 3.491699e-05
-0.059000 3.465323e-05
-0.058000 3.438557e-05
-0.057000 3.411406e-05
-0.056000 3.383873e-05
-0.055000 3.355962e-05
-0.054000 3.327678e-05
-0.053000 3.299024e-05
-0.052000 3.270005e-05
-0.051000 3.240624e-05
-0.050000 3.210887e-05
-0.049000 3.180796e-05
-0.048000 3.150356e-05
-0.047000 3.119572e-05
-0.046000 3.088448e-05
-0.045000 3.056988e-05
-0.044000 3.025196e-05
-0.043000 2.993077e-05
-0.042000 2.960636e-05
-0.041000 2.927877e-05
-0.040000 2.894804e-05
-0.039000 2.861421e-05
-0.038000 2.827735e-05
-0.037000 2.793748e-05
-0.036000 2.759466e-05
-0.035000 2.724893e-05
-0.034000 2.690035e-05
-0.033000 2.654895e-05
-0.032000 2.619478e-05
-0.031000 2.583790e-05
-0.030000 2.547835e-05
-0.029000 2.511618e-05
-0.028000 2.475143e-05
-0.027000 2.438416e-05
-0.026000 2.401441e-05
-0.025000 2.364224e-05
-0.024000 2.326768e-05
-0.023000 2.289080e-05
-0.022000 2.251164e-05
-0.021000 2.213025e-05
-0.020000 2.174669e-05
-0.019000 2.136099e-05
-0.018000 2.097321e-05
-0.017000 2.058340e-05
-0.016000 2.019161e-05
-0.015000 1.979789e-05
-0.014000 1.940229e-05
-0.013000 1.900485e-05
-0.012000 1.860563e-05
-0.011000 1.820468e-05
-0.010000 1.780203e-05
-0.009000 1.739774e-05
-0.008000 1.699184e-05
-0.007000 1.658439e-05
-0.006000 1.617542e-05
-0.005000 1.576496e-05
-0.004000 1.535304e-05
-0.003000 1.493970e-05
-0.002000 1.452496e-05
-0.001000 1.410882e-05
0.000000 1.369128e-05
0.001000 1.327234e-05
0.002000 1.285197e-05
0.003000 1.243014e-05
0.004000 1.200676e-05
0.005000 1.158175e-05
0.006000 1.115499e-05
0.007000 1.072631e-05
0.008000 1.029550e-05
0.009000 9.862278e-06
0.010000 9.426312e-06
0.011000 8.987175e-06
0.012000 8.544345e-06
0.013000 8.097181e-06
0.014000 7.644898e-06
0.015000 7.186550e-06
0.016000 6.720990e-06
0.017000 6.246843e-06
0.018000 5.762461e-06
0.019000 5.265876e-06
0.020000 4.754752e-06
0.021000 4.226320e-06
0.022000 3.677309e-06
0.023000 3.103869e-06
0.024000 2.501483e-06
0.025000 1.864862e-06
0.026000 1.187842e-06
0.027000 4.632496e-07
0.028000 -3.172293e-07
0.029000 -1.163207e-06
0.030000 -2.085763e-06
0.031000 -3.097627e-06
0.032000 -4.213380e-06
0.033000 -5.449676e-06
0.034000 -6.825474e-06
0.035000 -8.362293e-06
0.036000 -1.008447e-05
0.037000 -1.201946e-05
0.038000 -1.419811e-05
0.039000 -1.665498e-05
0.040000 -1.942864e-05
0.041000 -2.256201e-05
0.042000 -2.610265e-05
0.043000 -3.010309e-05
0.044000 -3.462113e-05
0.045000 -3.972012e-05
0.046000 -4.546920e-05
0.047000 -5.194352e-05
0.048000 -5.922443e-05
0.049000 -6.739959e-05
0.050000 -7.656301e-05
0.051000 -8.681498e-05
0.052000 -9.826202e-05
0.053000 -1.110165e-04
0.054000 -1.251966e-04
0.055000 -1.409252e-04
0.056000 -1.583298e-04
0.057000 -1.775415e-04
0.058000 -1.986940e-04
0.059000 -2.219222e-04
0.060000 -2.473611e-04
0.061000 -2.751440e-04
0.062000 -3.054008e-04
0.063000 -3.382559e-04
0.064000 -3.738256e-04
0.065000 -4.122163e-04
0.066000 -4.535211e-04
0.067000 -4.978175e-04
0.068000 -5.451640e-04
0.069000 -5.955968e-04
0.070000 -6.491270e-04
0.071000 -7.057366e-04
0.072000 -7.653757e-04
0.073000 -8.279585e-04
0.074000 -8.933605e-04
0.075000 -9.614150e-04
0.076000 -1.031910e-03
0.077000 -1.104587e-03
0.078000 -1.179135e-03
0.079000 -1.255193e-03
0.080000 -1.332346e-03
0.081000 -1.410125e-03
0.082000 -1.488004e-03
0.083000 -1.565408e-03
0.084000 -1.641704e-03
0.085000 -1.716212e-03
0.086000 -1.788204e-03
0.087000 -1.856906e-03
0.088000 -1.921510e-03
0.089000 -1.981170e-03
0.090000 -2.035019e-03
0.091000 -2.082169e-03
0.092000 -2.121724e-03
0.093000 -2.152787e-03
0.094000 -2.174472e-03
0.095000 -2.185914e-03
0.096000 -2.186280e-03
0.097000 -2.174783e-03
0.098000 -2.150692e-03
0.099000 -2.113342e-03
0.100000 -2.062152e-03
0.101000 -1.996630e-03
0.102000 -1.916389e-03
0.103000 -1.821156e-03
0.104000 -1.710780e-03
0.105000 -1.585243e-03
0.106000 -1.444664e-03
0.107000 -1.289308e-03
0.108000 -1.119588e-03
0.109000 -9.360691e-04
0.110000 -7.394655e-04
0.111000 -5.306427e-04
0.112000 -3.106119e-04
0.113000 -8.052473e-05
0.114000 1.583342e-04
0.115000 4.045571e-04
0.116000 6.566250e-04
0.117000 9.129206e-04
0.118000 1.171744e-03
0.119000 1.431327e-03
0.120000 1.689857e-03
0.121000 1.945487e-03
0.122000 2.196362e-03
0.123000 2.440638e-03
0.124000 2.676500e-03
0.125000 2.902185e-03
0.126000 3.115999e-03
0.127000 3.316339e-03
0.128000 3.501709e-03
0.129000 3.670738e-03
0.130000 3.822196e-03
0.131000 3.955006e-03
0.132000 4.068255e-03
0.133000 4.161208e-03
0.134000 4.233311e-03
0.135000 4.284196e-03
0.136000 4.313685e-03
0.137000 4.321792e-03
0.138000 4.308715e-03
0.139000 4.274837e-03
0.140000 4.220715e-03
0.141000 4.147075e-03
0.142000 4.054796e-03
0.143000 3.944900e-03
0.144000 3.818541e-03
0.145000 3.676983e-03
0.146000 3.521587e-03
0.147000 3.353795e-03
0.148000 3.175108e-03
0.149000 2.987075e-03
0.150000 2.791265e-03
0.151000 2.589261e-03
0.152000 2.382635e-03
0.153000 2.172933e-03
0.154000 1.961662e-03
0.155000 1.750276e-03
0.156000 1.540160e-03
0.157000 1.332623e-03
0.158000 1.128886e-03
0.159000 9.300721e-04
0.160000 7.372031e-04
0.161000 5.511934e-04
0.162000 3.728463e-04
0.163000 2.028523e-04
0.164000 4.178940e-05
0.165000 -1.098764e-04
0.166000 -2.517882e-04
0.167000 -3.836950e-04
0.168000 -5.054467e-04
0.169000 -6.169886e-04
0.170000 -7.183553e-04
0.171000 -8.096633e-04
0.172000 -8.911040e-04
0.173000 -9.629356e-04
0.174000 -1.025476e-03
0.175000 -1.079092e-03
0.176000 -1.124196e-03
0.177000 -1.161233e-03
0.178000 -1.190678e-03
0.179000 -1.213024e-03
0.180000 -1.228779e-03
0.181000 -1.238457e-03
0.182000 -1.242572e-03
0.183000 -1.241638e-03
0.184000 -1.236155e-03
0.185000 -1.226613e-03
0.186000 -1.213484e-03
0.187000 -1.197221e-03
0.188000 -1.178255e-03
0.189000 -1.156992e-03
0.190000 -1.133811e-03
0.191000 -1.109068e-03
0.192000 -1.083088e-03
0.193000 -1.056171e-03
0.194000 -1.028590e-03
0.195000 -1.000589e-03
0.196000 -9.723873e-04
0.197000 -9.441800e-04
0.198000 -9.161372e-04
0.199000 -8.884065e-04
0.200000 -8.611145e-04
0.201000 -8.343677e-04
0.202000 -8.082546e-04
0.203000 -7.828467e-04
0.204000 -7.582003e-04
0.205000 -7.343581e-04
0.206000 -7.113503e-04
0.207000 -6.891963e-04
0.208000 -6.679058e-04
0.209000 -6.474803e-04
0.210000 -6.279142e-04
0.211000 -6.091957e-04
0.212000 -5.913080e-04
0.213000 -5.742301e-04
0.214000 -5.579379e-04
0.215000 -5.424045e-04
0.216000 -5.276012e-04
0.217000 -5.134978e-04
0.218000 -5.000634e-04
0.219000 -4.872666e-04
0.220000 -4.750762e-04
0.221000 -4.634608e-04
0.222000 -4.523900e-04
0.223000 -4.418340e-04
0.224000 -4.317636e-04
0.225000 -4.221510e-04
0.226000 -4.129695e-04
0.227000 -4.041933e-04
0.228000 -3.957982e-04
0.229000 -3.877610e-04
0.230000 -3.800597e-04
0.231000 -3.726739e-04
0.232000 -3.655839e-04
0.233000 -3.587717e-04
0.234000 -3.522201e-04
0.235000 -3.459131e-04
0.236000 -3.398357e-04
0.237000 -3.339739e-04
0.238000 -3.283148e-04
0.239000 -3.228461e-04
0.240000 -3.175565e-04
0.241000 -3.124355e-04
0.242000 -3.074732e-04
0.243000 -3.026606e-04
0.244000 -2.979890e-04
0.245000 -2.934506e-04
0.246000 -2.890378e-04
0.247000 -2.847440e-04
0.248000 -2.805625e-04
0.249000 -2.764874e-04
0.250000 -2.725132e-04
0.251000 -2.686345e-04
0.252000 -2.648464e-04
0.253000 -2.611445e-04
0.254000 -2.575243e-04
0.255000 -2.539820e-04
0.256000 -2.505136e-04
0.257000 -2.471157e-04
0.258000 -2.437849e-04
0.259000 -2.405181e-04
0.260000 -2.373123e-04
0.261000 -2.341648e-04
0.262000 -2.310730e-04
0.263000 -2.280343e-04
0.264000 -2.250464e-04
0.265000 -2.221072e-04
0.266000 -2.192146e-04
0.267000 -2.163665e-04
0.268000 -2.135611e-04
0.269000 -2.107967e-04
0.270000 -2.080715e-04
0.271000 -2.053840e-04
0.272000 -2.027326e-04
0.273000 -2.001160e-04
0.274000 -1.975327e-04
0.275000 -1.949815e-04
0.276000 -1.924611e-04
0.277000 -1.899703e-04
0.278000 -1.875081e-04
0.279000 -1.850734e-04
0.280000 -1.826651e-04
0.281000 -1.802824e-04
0.282000 -1.779242e-04
0.283000 -1.755898e-04
0.284000 -1.732782e-04
0.285000 -1.709888e-04
0.286000 -1.687206e-04
0.287000 -1.664731e-04
0.288000 -1.642455e-04
0.289000 -1.620372e-04
0.290000 -1.598475e-04
0.291000 -1.576759e-04
0.292000 -1.555217e-04
0.293000 -1.533845e-04
0.294000 -1.512636e-04
0.295000 -1.491587e-04
0.296000 -1.470693e-04
0.297000 -1.449948e-04
0.298000 -1.429349e-04
0.299000 -1.408892e-04
0.300000 -1.388572e-04
0.301000 -1.368387e-04
0.302000 -1.348331e-04
0.303000 -1.328403e-04
0.304000 -1.308599e-04
0.305000 -1.288915e-04
0.306000 -1.269349e-04
0.307000 -1.249898e-04
0.308000 -1.230559e-04
0.309000 -1.211331e-04
0.310000 -1.192209e-04
0.311000 -1.173194e-04
0.312000 -1.154281e-04
0.313000 -1.135469e-04
0.314000 -1.116756e-04
0.315000 -1.098140e-04
0.316000 -1.079620e-04
0.317000 -1.061194e-04
0.318000 -1.042860e-04
0.319000 -1.024617e-04
0.320000 -1.006464e-04
0.321000 -9.883992e-05
0.322000 -9.704212e-05
0.323000 -9.525293e-05
0.324000 -9.347223e-05
0.325000 -9.169994e-05
0.326000 -8.993596e-05
0.327000 -8.818021e-05
0.328000 -8.643263e-05
0.329000 -8.469314e-05
0.330000 -8.296170e-05
0.331000 -8.123824e-05
0.332000 -7.952273e-05
0.333000 -7.781513e-05
0.334000 -7.611541e-05
0.335000 -7.442354e-05
0.336000 -7.273950e-05
0.337000 -7.106330e-05
0.338000 -6.939491e-05
0.339000 -6.773436e-05
0.340000 -6.608163e-05
0.341000 -6.443676e-05
0.342000 -6.279975e-05
0.343000 -6.117064e-05
0.344000 -5.954946e-05
0.345000 -5.793624e-05
0.346000 -5.633102e-05
0.347000 -5.473386e-05
0.348000 -5.314480e-05
0.349000 -5.156390e-05
0.350000 -4.999122e-05
0.351000 -4.842681e-05
0.352000 -4.687074e-05
0.353000 -4.532307e-05
0.354000 -4.378388e-05
0.355000 -4.225322e-05
0.356000 -4.073116e-05
0.357000 -3.921777e-05
0.358000 -3.771311e-05
0.359000 -3.621723e-05
0.360000 -3.473020e-05
0.361000 -3.325205e-05
0.362000 -3.178283e-05
0.363000 -3.032259e-05
0.364000 -2.887134e-05
0.365000 -2.742911e-05
0.366000 -2.599591e-05
0.367000 -2.457173e-05
0.368000 -2.315657e-05
0.369000 -2.175040e-05
0.370000 -2.035318e-05
0.371000 -1.896486e-05
0.372000 -1.758537e-05
0.373000 -1.621465e-05
0.374000 -1.485259e-05
0.375000 -1.349909e-05
0.376000 -1.215403e-05
0.377000 -1.081728e-05
0.378000 -9.488688e-06
0.379000 -8.168104e-06
0.380000 -6.855356e-06
0.381000 -5.550268e-06
0.382000 -4.252655e-06
0.383000 -2.962324e-06
0.384000 -1.679078e-06
0.385000 -4.027187e-07
0.386000 8.669551e-07
0.387000 2.130142e-06
0.388000 3.387039e-06
0.389000 4.637834e-06
0.390000 5.882709e-06
0.391000 7.121836e-06
0.392000 8.355372e-06
0.393000 9.583461e-06
0.394000 1.080623e-05
0.395000 1.202378e-05
0.396000 1.323620e-05
0.397000 1.444355e-05
0.398000 1.564587e-05
0.399000 1.684316e-05
0.400000 1.803543e-05
0.401000 1.922261e-05
0.402000 2.040464e-05
0.403000 2.158142e-05
0.404000 2.275281e-05
0.405000 2.391868e-05
0.406000 2.507882e-05
0.407000 2.623303e-05
0.408000 2.738108e-05
0.409000 2.852270e-05
0.410000 2.965763e-05
0.411000 3.078556e-05
0.412000 3.190618e-05
0.413000 3.301915e-05
0.414000 3.412415e-05
0.415000 3.522081e-05
0.416000 3.630879e-05
0.417000 3.738772e-05
0.418000 3.845724e-05
0.419000 3.951700e-05
0.420000 4.056665e-05
0.421000 4.160585e-05
0.422000 4.263425e-05
0.423000 4.365154e-05
0.424000 4.465741e-05
0.425000 4.565158e-05
0.426000 4.663377e-05
0.427000 4.760373e-05
0.428000 4.856124e-05
0.429000 4.950609e-05
0.430000 5.043810e-05
0.431000 5.135710e-05
0.432000 5.226296e-05
0.433000 5.315556e-05
0.434000 5.403482e-05
0.435000 5.490068e-05
0.436000 5.575307e-05
0.437000 5.659199e-05
0.438000 5.741742e-05
0.439000 5.822938e-05
0.440000 5.902790e-05
0.441000 5.981304e-05
0.442000 6.058484e-05
0.443000 6.134339e-05
0.444000 6.208877e-05
0.445000 6.282108e-05
0.446000 6.354043e-05
0.447000 6.424691e-05
0.448000 6.494064e-05
0.449000 6.562175e-05
0.450000 6.629035e-05
0.451000 6.694656e-05
0.452000 6.759050e-05
0.453000 6.822230e-05
0.454000 6.884206e-05
0.455000 6.944990e-05
0.456000 7.004593e-05
0.457000 7.063026e-05
0.458000 7.120298e-05
0.459000 7.176419e-05
0.460000 7.231397e-05
0.461000 7.285241e-05
0.462000 7.337958e-05
0.463000 7.389556e-05
0.464000 7.440040e-05
0.465000 7.489416e-05
0.466000 7.537691e-05
0.467000 7.584867e-05
0.468000 7.630950e-05
0.469000 7.675943e-05
0.470000 7.719848e-05
0.471000 7.762670e-05
0.472000 7.804410e-05
0.473000 7.845070e-05
0.474000 7.884651e-05
0.475000 7.923156e-05
0.476000 7.960586e-05
0.477000 7.996940e-05
0.478000 8.032220e-05
0.479000 8.066427e-05
0.480000 8.099561e-05
0.481000 8.131623e-05
0.482000 8.162612e-05
0.483000 8.192530e-05
0.484000 8.221376e-05
0.485000 8.249151e-05
0.486000 8.275855e-05
0.487000 8.301489e-05
0.488000 8.326053e-05
0.489000 8.349548e-05
0.490000 8.371975e-05
0.491000 8.393333e-05
0.492000 8.413625e-05
0.493000 8.432851e-05
0.494000 8.451012e-05
0.495000 8.468109e-05
0.496000 8.484144e-05
0.497000 8.499119e-05
0.498000 8.513034e-05
0.499000 8.525892e-05
0.500000 8.537695e-05
0.501000 8.548444e-05
0.502000 8.558141e-05
0.503000 8.566790e-05
0.504000 8.574392e-05
0.505000 8.580950e-05
0.506000 8.586466e-05
0.507000 8.590944e-05
0.508000 8.594387e-05
0.509000 8.596796e-05
0.510000 8.598176e-05
0.511000 8.598530e-05
0.512000 8.597861e-05
0.513000 8.596172e-05
0.514000 8.593468e-05
0.515000 8.589752e-05
0.516000 8.585028e-05
0.517000 8.579299e-05
0.518000 8.572570e-05
0.519000 8.564845e-05
0.520000 8.556129e-05
0.521000 8.546425e-05
0.522000 8.535737e-05
0.523000 8.524072e-05
0.524000 8.511432e-05
0.525000 8.497823e-05
0.526000 8.483250e-05
0.527000 8.467718e-05
0.528000 8.451231e-05
0.529000 8.433795e-05
0.530000 8.415415e-05
0.531000 8.396096e-05
0.532000 8.375843e-05
0.533000 8.354663e-05
0.534000 8.332559e-05
0.535000 8.309539e-05
0.536000 8.285608e-05
0.537000 8.260771e-05
0.538000 8.235034e-05
0.539000 8.208404e-05
0.540000 8.180886e-05
0.541000 8.152486e-05
0.542000 8.123211e-05
0.543000 8.093066e-05
0.544000 8.062059e-05
0.545000 8.030195e-05
0.546000 7.997480e-05
0.547000 7.963923e-05
0.548000 7.929528e-05
0.549000 7.894302e-05
0.550000 7.858253e-05
0.551000 7.821388e-05
0.552000 7.783712e-05
0.553000 7.745233e-05
0.554000 7.705958e-05
0.555000 7.665894e-05
0.556000 7.625049e-05
0.557000 7.583428e-05
0.558000 7.541040e-05
0.559000 7.497892e-05
0.560000 7.453992e-05
0.561000 7.409346e-05
0.562000 7.363962e-05
0.563000 7.317848e-05
0.564000 7.271012e-05
0.565000 7.223460e-05
0.566000 7.175201e-05
0.567000 7.126243e-05
0.568000 7.076593e-05
0.569000 7.026259e-05
0.570000 6.975249e-05
0.571000 6.923571e-05
0.572000 6.871234e-05
0.573000 6.818244e-05
0.574000 6.764611e-05
0.575000 6.710343e-05
0.576000 6.655447e-05
0.577000 6.599932e-05
0.578000 6.543806e-05
0.579000 6.487078e-05
0.580000 6.429756e-05
0.581000 6.371849e-05
0.582000 6.313364e-05
0.583000 6.254311e-05
0.584000 6.194698e-05
0.585000 6.134533e-05
0.586000 6.073825e-05
0.587000 6.012583e-05
0.588000 5.950816e-05
0.589000 5.888532e-05
0.590000 5.825740e-05
0.591000 5.762448e-05
0.592000 5.698667e-05
0.593000 5.634403e-05
0.594000 5.569667e-05
0.595000 5.504467e-05
0.596000 5.438812e-05
0.597000 5.372712e-05
0.598000 5.306174e-05
0.599000 5.239208e-05
0.600000 5.171824e-05
0.601000 5.104029e-05
0.602000 5.035834e-05
0.603000 4.967247e-05
0.604000 4.898278e-05
0.605000 4.828934e-05
0.606000 4.759227e-05
0.607000 4.689164e-05
0.608000 4.618755e-05
0.609000 4.548010e-05
0.610000 4.476936e-05
0.611000 4.405544e-05
0.612000 4.333843e-05
0.613000 4.261842e-05
0.614000 4.189550e-05
0.615000 4.116977e-05
0.616000 4.044131e-05
0.617000 3.971022e-05
0.618000 3.897659e-05
0.619000 3.824052e-05
0.620000 3.750209e-05
0.621000 3.676141e-05
0.622000 3.601856e-05
0.623000 3.527363e-05
0.624000 3.452672e-05
0.625000 3.377792e-05
0.626000 3.302732e-05
0.627000 3.227502e-05
0.628000 3.152110e-05
0.629000 3.076567e-05
0.630000 3.000881e-05
0.631000 2.925061e-05
0.632000 2.849117e-05
0.633000 2.773058e-05
0.634000 2.696894e-05
0.635000 2.620632e-05
0.636000 2.544283e-05
0.637000 2.467856e-05
0.638000 2.391359e-05
0.639000 2.314802e-05
0.640000 2.238195e-05
0.641000 2.161545e-05
0.642000 2.084863e-05
0.643000 2.008156e-05
0.644000 1.931436e-05
0.645000 1.854709e-05
0.646000 1.777986e-05
0.647000 1.701274e-05
0.648000 1.624584e-05
0.649000 1.547925e-05
0.650000 1.471304e-05
0.651000 1.394731e-05
0.652000 1.318214e-05
0.653000 1.241763e-05
0.654000 1.165387e-05
0.655000 1.089093e-05
0.656000 1.012891e-05
0.657000 9.367898e-06
0.658000 8.607974e-06
0.659000 7.849227e-06
0.660000 7.091742e-06
0.661000 6.335605e-06
0.662000 5.580901e-06
0.663000 4.827715e-06
0.664000 4.076131e-06
0.665000 3.326233e-06
0.666000 2.578104e-06
0.667000 1.831828e-06
0.668000 1.087487e-06
0.669000 3.451642e-07
0.670000 -3.950595e-07
0.671000 -1.133102e-06
0.672000 -1.868883e-06
0.673000 -2.602322e-06
0.674000 -3.333339e-06
0.675000 -4.061853e-06
0.676000 -4.787787e-06
0.677000 -5.511062e-06
0.678000 -6.231598e-06
0.679000 -6.949320e-06
0.680000 -7.664149e-06
0.681000 -8.376010e-06
0.682000 -9.084825e-06
0.683000 -9.790521e-06
0.684000 -1.049302e-05
0.685000 -1.119225e-05
0.686000 -1.188814e-05
0.687000 -1.258061e-05
0.688000 -1.326959e-05
0.689000 -1.395501e-05
0.690000 -1.463679e-05
0.691000 -1.531487e-05
0.692000 -1.598918e-05
0.693000 -1.665964e-05
0.694000 -1.732619e-05
0.695000 -1.798876e-05
0.696000 -1.864727e-05
0.697000 -1.930167e-05
0.698000 -1.995189e-05
0.699000 -2.059785e-05
0.700000 -2.123950e-05
0.701000 -2.187677e-05
0.702000 -2.250960e-05
0.703000 -2.313791e-05
0.704000 -2.376166e-05
0.705000 -2.438077e-05
0.706000 -2.499519e-05
0.707000 -2.560486e-05
0.708000 -2.620971e-05
0.709000 -2.680968e-05
0.710000 -2.740473e-05
0.711000 -2.799478e-05
0.712000 -2.857979e-05
0.713000 -2.915969e-05
0.714000 -2.973443e-05
0.715000 -3.030395e-05
0.716000 -3.086821e-05
0.717000 -3.142714e-05
0.718000 -3.198070e-05
0.719000 -3.252883e-05
0.720000 -3.307148e-05
0.721000 -3.360860e-05
0.722000 -3.414014e-05
0.723000 -3.466605e-05
0.724000 -3.518629e-05
0.725000 -3.570079e-05
0.726000 -3.620953e-05
0.727000 -3.671245e-05
0.728000 -3.720951e-05
0.729000 -3.770066e-05
0.730000 -3.818586e-05
0.731000 -3.866506e-05
0.732000 -3.913823e-05
0.733000 -3.960533e-05
0.734000 -4.006630e-05
0.735000 -4.052112e-05
0.736000 -4.096974e-05
0.737000 -4.141213e-05
0.738000 -4.184824e-05
0.739000 -4.227805e-05
0.740000 -4.270151e-05
0.741000 -4.311860e-05
0.742000 -4.352927e-05
0.743000 -4.393349e-05
0.744000 -4.433124e-05
0.745000 -4.472248e-05
0.746000 -4.510718e-05
0.747000 -4.548531e-05
0.748000 -4.585684e-05
0.749000 -4.622174e-05
0.750000 -4.657999e-05
0.751000 -4.693155e-05
0.752000 -4.727641e-05
0.753000 -4.761454e-05
0.754000 -4.794591e-05
0.755000 -4.827050e-05
0.756000 -4.858829e-05
0.757000 -4.889925e-05
0.758000 -4.920337e-05
0.759000 -4.950063e-05
0.760000 -4.979101e-05
0.761000 -5.007448e-05
0.762000 -5.035104e-05
0.763000 -5.062066e-05
0.764000 -5.088333e-05
0.765000 -5.113904e-05
0.766000 -5.138777e-05
0.767000 -5.162950e-05
0.768000 -5.186423e-05
0.769000 -5.209195e-05
0.770000 -5.231264e-05
0.771000 -5.252629e-05
0.772000 -5.273290e-05
0.773000 -5.293246e-05
0.774000 -5.312495e-05
0.775000 -5.331038e-05
0.776000 -5.348874e-05
0.777000 -5.366002e-05
0.778000 -5.382422e-05
0.779000 -5.398134e-05
0.780000 -5.413137e-05
0.781000 -5.427432e-05
0.782000 -5.441017e-05
0.783000 -5.453894e-05
0.784000 -5.466063e-05
0.785000 -5.477523e-05
0.786000 -5.488275e-05
0.787000 -5.498319e-05
0.788000 -5.507656e-05
0.789000 -5.516286e-05
0.790000 -5.524210e-05
0.791000 -5.531428e-05
0.792000 -5.537942e-05
0.793000 -5.543752e-05
0.794000 -5.548859e-05
0.795000 -5.553264e-05
0.796000 -5.556968e-05
0.797000 -5.559972e-05
0.798000 -5.562278e-05
0.799000 -5.563887e-05
0.800000 -5.564801e-05
0.801000 -5.565020e-05
0.802000 -5.564547e-05
0.803000 -5.563382e-05
0.804000 -5.561529e-05
0.805000 -5.558988e-05
0.806000 -5.555761e-05
0.807000 -5.551851e-05
0.808000 -5.547259e-05
0.809000 -5.541988e-05
0.810000 -5.536039e-05
0.811000 -5.529416e-05
0.812000 -5.522119e-05
0.813000 -5.514153e-05
0.814000 -5.505518e-05
0.815000 -5.496218e-05
0.816000 -5.486256e-05
0.817000 -5.475633e-05
0.818000 -5.464354e-05
0.819000 -5.452420e-05
0.820000 -5.439834e-05
0.821000 -5.426600e-05
0.822000 -5.412721e-05
0.823000 -5.398199e-05
0.824000 -5.383039e-05
0.825000 -5.367242e-05
0.826000 -5.350813e-05
0.827000 -5.333754e-05
0.828000 -5.316070e-05
0.829000 -5.297764e-05
0.830000 -5.278840e-05
0.831000 -5.259300e-05
0.832000 -5.239149e-05
0.833000 -5.218391e-05
0.834000 -5.197029e-05
0.835000 -5.175068e-05
0.836000 -5.152511e-05
0.837000 -5.129362e-05
0.838000 -5.105626e-05
0.839000 -5.081307e-05
0.840000 -5.056408e-05
0.841000 -5.030934e-05
0.842000 -5.004890e-05
0.843000 -4.978280e-05
0.844000 -4.951108e-05
0.845000 -4.923380e-05
0.846000 -4.895098e-05
0.847000 -4.866269e-05
0.848000 -4.836896e-05
0.849000 -4.806985e-05
0.850000 -4.776540e-05
0.851000 -4.745566e-05
0.852000 -4.714068e-05
0.853000 -4.682051e-05
0.854000 -4.649520e-05
0.855000 -4.616480e-05
0.856000 -4.582936e-05
0.857000 -4.548893e-05
0.858000 -4.514356e-05
0.859000 -4.479332e-05
0.860000 -4.443824e-05
0.861000 -4.407839e-05
0.862000 -4.371381e-05
0.863000 -4.334457e-05
0.864000 -4.297071e-05
0.865000 -4.259229e-05
0.866000 -4.220936e-05
0.867000 -4.182199e-05
0.868000 -4.143023e-05
0.869000 -4.103414e-05
0.870000 -4.063377e-05
0.871000 -4.022918e-05
0.872000 -3.982043e-05
0.873000 -3.940757e-05
0.874000 -3.899068e-05
0.875000 -3.856979e-05
0.876000 -3.814498e-05
0.877000 -3.771631e-05
0.878000 -3.728383e-05
0.879000 -3.684761e-05
0.880000 -3.640770e-05
0.881000 -3.596417e-05
0.882000 -3.551708e-05
0.883000 -3.506648e-05
0.884000 -3.461245e-05
0.885000 -3.415505e-05
0.886000 -3.369433e-05
0.887000 -3.323036e-05
0.888000 -3.276321e-05
0.889000 -3.229293e-05
0.890000 -3.181959e-05
0.891000 -3.134326e-05
0.892000 -3.086399e-05
0.893000 -3.038186e-05
0.894000 -2.989693e-05
0.895000 -2.940925e-05
0.896000 -2.891891e-05
0.897000 -2.842595e-05
0.898000 -2.793045e-05
0.899000 -2.743248e-05
0.900000 -2.693209e-05
0.901000 -2.642936e-05
0.902000 -2.592435e-05
0.903000 -2.541712e-05
0.904000 -2.490775e-05
0.905000 -2.439630e-05
0.906000 -2.388283e-05
0.907000 -2.336741e-05
0.908000 -2.285012e-05
0.909000 -2.233101e-05
0.910000 -2.181015e-05
0.911000 -2.128761e-05
0.912000 -2.076345e-05
0.913000 -2.023776e-05
0.914000 -1.971058e-05
0.915000 -1.918199e-05
0.916000 -1.865205e-05
0.917000 -1.812084e-05
0.918000 -1.758842e-05
0.919000 -1.705485e-05
0.920000 -1.652021e-05
0.921000 -1.598456e-05
0.922000 -1.544797e-05
0.923000 -1.491051e-05
0.924000 -1.437224e-05
0.925000 -1.383323e-05
0.926000 -1.329355e-05
0.927000 -1.275326e-05
0.928000 -1.221244e-05
0.929000 -1.167114e-05
0.930000 -1.112944e-05
0.931000 -1.058741e-05
0.932000 -1.004511e-05
0.933000 -9.502598e-06
0.934000 -8.959953e-06
0.935000 -8.417239e-06
0.936000 -7.874521e-06
0.937000 -7.331865e-06
0.938000 -6.789338e-06
0.939000 -6.247005e-06
0.940000 -5.704933e-06
0.941000 -5.163186e-06
0.942000 -4.621832e-06
0.943000 -4.080934e-06
0.944000 -3.540559e-06
0.945000 -3.000770e-06
0.946000 -2.461633e-06
0.947000 -1.923213e-06
0.948000 -1.385574e-06
0.949000 -8.487794e-07
0.950000 -3.128941e-07
0.951000 2.220186e-07
0.952000 7.558951e-07
0.953000 1.288672e-06
0.954000 1.820287e-06
0.955000 2.350676e-06
0.956000 2.879778e-06
0.957000 3.407530e-06
0.958000 3.933871e-06
0.959000 4.458737e-06
0.960000 4.982069e-06
0.961000 5.503806e-06
0.962000 6.023885e-06
0.963000 6.542248e-06
0.964000 7.058833e-06
0.965000 7.573581e-06
0.966000 8.086433e-06
0.967000 8.597330e-06
0.968000 9.106211e-06
0.969000 9.613020e-06
0.970000 1.011770e-05
0.971000 1.062019e-05
0.972000 1.112043e-05
0.973000 1.161837e-05
0.974000 1.211395e-05
0.975000 1.260712e-05
0.976000 1.309781e-05
0.977000 1.358598e-05
0.978000 1.407156e-05
0.979000 1.455451e-05
0.980000 1.503476e-05
0.981000 1.551227e-05
0.982000 1.598699e-05
0.983000 1.645885e-05
0.984000 1.692781e-05
0.985000 1.739381e-05
0.986000 1.785681e-05
0.987000 1.831675e-05
0.988000 1.877357e-05
0.989000 1.922724e-05
0.990000 1.967770e-05
0.991000 2.012491e-05
0.992000 2.056880e-05
0.993000 2.100934e-05
0.994000 2.144648e-05
0.995000 2.188016e-05
0.996000 2.231035e-05
0.997000 2.273700e-05
0.998000 2.316005e-05
0.999000 2.357948e-05
1.000000 2.399522e-05
1.001000 2.440723e-05
1.002000 2.481548e-05
1.003000 2.521992e-05
1.004000 2.562051e-05
1.005000 2.601720e-05
1.006000 2.640995e-05
1.007000 2.679873e-05
1.008000 2.718349e-05
1.009000 2.756418e-05
1.010000 2.794078e-05
1.011000 2.831325e-05
1.012000 2.868154e-05
1.013000 2.904561e-05
1.014000 2.940544e-05
1.015000 2.976098e-05
1.016000 3.011219e-05
1.017000 3.045905e-05
1.018000 3.080152e-05
1.019000 3.113956e-05
1.020000 3.147314e-05
1.021000 3.180223e-05
1.022000 3.212679e-05
1.023000 3.244679e-05
1.024000 3.276221e-05
1.025000 3.307301e-05
1.026000 3.337915e-05
1.027000 3.368062e-05
1.028000 3.397738e-05
1.029000 3.426941e-05
1.030000 3.455667e-05
1.031000 3.483914e-05
1.032000 3.511680e-05
1.033000 3.538961e-05
1.034000 3.565756e-05
1.035000 3.592062e-05
1.036000 3.617876e-05
1.037000 3.643196e-05
1.038000 3.668021e-05
1.039000 3.692347e-05
1.040000 3.716172e-05
1.041000 3.739496e-05
1.042000 3.762314e-05
1.043000 3.784627e-05
1.044000 3.806431e-05
1.045000 3.827725e-05
1.046000 3.848508e-05
1.047000 3.868777e-05
1.048000 3.888531e-05
1.049000 3.907769e-05
1.050000 3.926488e-05
1.051000 3.944688e-05
1.052000 3.962367e-05
1.053000 3.979524e-05
1.054000 3.996158e-05
1.055000 4.012268e-05
1.056000 4.027852e-05
1.057000 4.042909e-05
1.058000 4.057439e-05
1.059000 4.071440e-05
1.060000 4.084912e-05
1.061000 4.097854e-05
1.062000 4.110266e-05
1.063000 4.122146e-05
1.064000 4.133494e-05
1.065000 4.144310e-05
1.066000 4.154593e-05
1.067000 4.164343e-05
1.068000 4.173560e-05
1.069000 4.182242e-05
1.070000 4.190391e-05
1.071000 4.198006e-05
1.072000 4.205087e-05
1.073000 4.211634e-05
1.074000 4.217647e-05
1.075000 4.223126e-05
1.076000 4.228071e-05
1.077000 4.232484e-05
1.078000 4.236363e-05
1.079000 4.239710e-05
