-0.120000 -9.840831e-06
-0.119000 -9.808360e-06
-0.118000 -9.776046e-06
-0.117000 -9.743887e-06
-0.116000 -9.711884e-06
-0.115000 -9.680034e-06
-0.114000 -9.648336e-06
-0.113000 -9.616791e-06
-0.112000 -9.585396e-06
-0.111000 -9.554152e-06
-0.110000 -9.523056e-06
-0.109000 -9.492108e-06
-0.108000 -9.461308e-06
-0.107000 -9.430654e-06
-0.106000 -9.400145e-06
-0.105000 -9.369780e-06
-0.104000 -9.339559e-06
-0.103000 -9.309481e-06
-0.102000 -9.279544e-06
-0.101000 -9.249748e-06
-0.100000 -9.220093e-06
-0.099000 -9.190576e-06
-0.098000 -9.161198e-06
-0.097000 -9.131957e-06
-0.096000 -9.102852e-06
-0.095000 -9.073884e-06
-0.094000 -9.045050e-06
-0.093000 -9.016350e-06
-0.092000 -8.987784e-06
-0.091000 -8.959350e-06
-0.090000 -8.931048e-06
-0.089000 -8.902877e-06
-0.088000 -8.874835e-06
-0.087000 -8.846923e-06
-0.086000 -8.819140e-06
-0.085000 -8.791484e-06
-0.084000 -8.763955e-06
-0.083000 -8.736553e-06
-0.082000 -8.709276e-06
-0.081000 -8.682123e-06
-0.080000 -8.655095e-06
-0.079000 -8.628190e-06
-0.078000 -8.601407e-06
-0.077000 -8.574746e-06
-0.076000 -8.548206e-06
-0.075000 -8.521786e-06
-0.074000 -8.495486e-06
-0.073000 -8.469305e-06
-0.072000 -8.443242e-06
-0.071000 -8.417296e-06
-0.070000 -8.391467e-06
-0.069000 -8.365755e-06
-0.068000 -8.340158e-06
-0.067000 -8.314675e-06
-0.066000 -8.289307e-06
-0.065000 -8.264051e-06
-0.064000 -8.238909e-06
-0.063000 -8.213879e-06
-0.062000 -8.188960e-06
-0.061000 -8.164152e-06
-0.060000 -8.139454e-06
-0.059000 -8.114866e-06
-0.058000 -8.090386e-06
-0.057000 -8.066015e-06
-0.056000 -8.041751e-06
-0.055000 -8.017595e-06
-0.054000 -7.993544e-06
-0.053000 -7.969600e-06
-0.052000 -7.945760e-06
-0.051000 -7.922025e-06
-0.050000 -7.898395e-06
-0.049000 -7.874867e-06
-0.048000 -7.851442e-06
-0.047000 -7.828120e-06
-0.046000 -7.804899e-06
-0.045000 -7.781779e-06
-0.044000 -7.758759e-06
-0.043000 -7.735839e-06
-0.042000 -7.713019e-06
-0.041000 -7.690297e-06
-0.040000 -7.667674e-06
-0.039000 -7.645148e-06
-0.038000 -7.622720e-06
-0.037000 -7.600387e-06
-0.036000 -7.578151e-06
-0.035000 -7.556011e-06
-0.034000 -7.533965e-06
-0.033000 -7.512013e-06
-0.032000 -7.490156e-06
-0.031000 -7.468392e-06
-0.030000 -7.446721e-06
-0.029000 -7.425142e-06
-0.028000 -7.403654e-06
-0.027000 -7.382258e-06
-0.026000 -7.360953e-06
-0.025000 -7.339738e-06
-0.024000 -7.318613e-06
-0.023000 -7.297577e-06
-0.022000 -7.276630e-06
-0.021000 -7.255772e-06
-0.020000 -7.235001e-06
-0.019000 -7.214317e-06
-0.018000 -7.193720e-06
-0.017000 -7.173210e-06
-0.016000 -7.152786e-06
-0.015000 -7.132447e-06
-0.014000 -7.112193e-06
-0.013000 -7.092023e-06
-0.012000 -7.071938e-06
-0.011000 -7.051936e-06
-0.010000 -7.032017e-06
-0.009000 -7.012181e-06
-0.008000 -6.992427e-06
-0.007000 -6.972755e-06
-0.006000 -6.953165e-06
-0.005000 -6.933655e-06
-0.004000 -6.914226e-06
-0.003000 -6.894877e-06
-0.002000 -6.875607e-06
-0.001000 -6.856417e-06
0.000000 -6.837305e-06
0.001000 -6.818272e-06
0.002000 -6.799317e-06
0.003000 -6.780439e-06
0.004000 -6.761638e-06
0.005000 -6.742914e-06
0.006000 -6.724267e-06
0.007000 -6.705695e-06
0.008000 -6.687199e-06
0.009000 -6.668778e-06
0.010000 -6.650432e-06
0.011000 -6.632160e-06
0.012000 -6.613962e-06
0.013000 -6.595838e-06
0.014000 -6.577787e-06
0.015000 -6.559809e-06
0.016000 -6.541904e-06
0.017000 -6.524071e-06
0.018000 -6.506310e-06
0.019000 -6.488621e-06
0.020000 -6.471003e-06
0.021000 -6.453457e-06
0.022000 -6.435982e-06
0.023000 -6.418577e-06
0.024000 -6.401244e-06
0.025000 -6.383981e-06
0.026000 -6.366788e-06
0.027000 -6.349667e-06
0.028000 -6.332616e-06
0.029000 -6.315636e-06
0.030000 -6.298728e-06
0.031000 -6.281891e-06
0.032000 -6.265126e-06
0.033000 -6.248434e-06
0.034000 -6.231815e-06
0.035000 -6.215272e-06
0.036000 -6.198804e-06
0.037000 -6.182413e-06
0.038000 -6.166101e-06
0.039000 -6.149869e-06
0.040000 -6.133721e-06
0.041000 -6.117659e-06
0.042000 -6.101686e-06
0.043000 -6.085805e-06
0.044000 -6.070020e-06
0.045000 -6.054336e-06
0.046000 -6.038758e-06
0.047000 -6.023292e-06
0.048000 -6.007945e-06
0.049000 -5.992723e-06
0.050000 -5.977634e-06
0.051000 -5.962688e-06
0.052000 -5.947894e-06
0.053000 -5.933263e-06
0.054000 -5.918808e-06
0.055000 -5.904540e-06
0.056000 -5.890474e-06
0.057000 -5.876626e-06
0.058000 -5.863011e-06
0.059000 -5.849648e-06
0.060000 -5.836555e-06
0.061000 -5.823753e-06
0.062000 -5.811262e-06
0.063000 -5.799107e-06
0.064000 -5.787309e-06
0.065000 -5.775895e-06
0.066000 -5.764889e-06
0.067000 -5.754319e-06
0.068000 -5.744211e-06
0.069000 -5.734594e-06
0.070000 -5.725496e-06
0.071000 -5.716946e-06
0.072000 -5.708970e-06
0.073000 -5.701598e-06
0.074000 -5.694855e-06
0.075000 -5.688768e-06
0.076000 -5.683362e-06
0.077000 -5.678658e-06
0.078000 -5.674678e-06
0.079000 -5.671438e-06
0.080000 -5.668952e-06
0.081000 -5.667232e-06
0.082000 -5.666284e-06
0.083000 -5.666110e-06
0.084000 -5.666707e-06
0.085000 -5.668066e-06
0.086000 -5.670173e-06
0.087000 -5.673007e-06
0.088000 -5.676541e-06
0.089000 -5.680741e-06
0.090000 -5.685566e-06
0.091000 -5.690967e-06
0.092000 -5.696891e-06
0.093000 -5.703276e-06
0.094000 -5.710052e-06
0.095000 -5.717145e-06
0.096000 -5.724475e-06
0.097000 -5.731958e-06
0.098000 -5.739505e-06
0.099000 -5.747026e-06
0.100000 -5.754431e-06
0.101000 -5.761629e-06
0.102000 -5.768536e-06
0.103000 -5.775075e-06
0.104000 -5.781176e-06
0.105000 -5.786788e-06
0.106000 -5.791877e-06
0.107000 -5.796436e-06
0.108000 -5.800488e-06
0.109000 -5.804099e-06
0.110000 -5.807384e-06
0.111000 -5.810518e-06
0.112000 -5.813752e-06
0.113000 -5.817428e-06
0.114000 -5.821993e-06
0.115000 -5.828028e-06
0.116000 -5.836266e-06
0.117000 -5.847629e-06
0.118000 -5.863258e-06
0.119000 -5.884554e-06
0.120000 -5.913232e-06
0.121000 -5.951368e-06
0.122000 -6.001473e-06
0.123000 -6.066564e-06
0.124000 -6.150251e-06
0.125000 -6.256843e-06
0.126000 -6.391460e-06
0.127000 -6.560172e-06
0.128000 -6.770147e-06
0.129000 -7.029832e-06
0.130000 -7.349148e-06
0.131000 -7.739718e-06
0.132000 -8.215121e-06
0.133000 -8.791176e-06
0.134000 -9.486266e-06
0.135000 -1.032169e-05
0.136000 -1.132207e-05
0.137000 -1.251577e-05
0.138000 -1.393539e-05
0.139000 -1.561829e-05
0.140000 -1.760716e-05
0.141000 -1.995064e-05
0.142000 -2.270398e-05
0.143000 -2.592975e-05
0.144000 -2.969862e-05
0.145000 -3.409009e-05
0.146000 -3.919338e-05
0.147000 -4.510826e-05
0.148000 -5.194593e-05
0.149000 -5.982988e-05
0.150000 -6.889682e-05
0.151000 -7.929749e-05
0.152000 -9.119753e-05
0.153000 -1.047782e-04
0.154000 -1.202372e-04
0.155000 -1.377891e-04
0.156000 -1.576658e-04
0.157000 -1.801171e-04
0.158000 -2.054104e-04
0.159000 -2.338310e-04
0.160000 -2.656813e-04
0.161000 -3.012803e-04
0.162000 -3.409627e-04
0.163000 -3.850772e-04
0.164000 -4.339849e-04
0.165000 -4.880567e-04
0.166000 -5.476710e-04
0.167000 -6.132098e-04
0.168000 -6.850551e-04
0.169000 -7.635846e-04
0.170000 -8.491665e-04
0.171000 -9.421537e-04
0.172000 -1.042878e-03
0.173000 -1.151643e-03
0.174000 -1.268718e-03
0.175000 -1.394326e-03
0.176000 -1.528642e-03
0.177000 -1.671780e-03
0.178000 -1.823784e-03
0.179000 -1.984620e-03
0.180000 -2.154169e-03
0.181000 -2.332212e-03
0.182000 -2.518429e-03
0.183000 -2.712384e-03
0.184000 -2.913521e-03
0.185000 -3.121153e-03
0.186000 -3.334463e-03
0.187000 -3.552490e-03
0.188000 -3.774132e-03
0.189000 -3.998143e-03
0.190000 -4.223128e-03
0.191000 -4.447552e-03
0.192000 -4.669737e-03
0.193000 -4.887871e-03
0.194000 -5.100018e-03
0.195000 -5.304124e-03
0.196000 -5.498034e-03
0.197000 -5.679508e-03
0.198000 -5.846234e-03
0.199000 -5.995856e-03
0.200000 -6.125990e-03
0.201000 -6.234255e-03
0.202000 -6.318293e-03
0.203000 -6.375804e-03
0.204000 -6.404572e-03
0.205000 -6.402495e-03
0.206000 -6.367620e-03
0.207000 -6.298169e-03
0.208000 -6.192574e-03
0.209000 -6.049506e-03
0.210000 -5.867902e-03
0.211000 -5.646993e-03
0.212000 -5.386326e-03
0.213000 -5.085790e-03
0.214000 -4.745628e-03
0.215000 -4.366458e-03
0.216000 -3.949275e-03
0.217000 -3.495463e-03
0.218000 -3.006791e-03
0.219000 -2.485411e-03
0.220000 -1.933848e-03
0.221000 -1.354983e-03
0.222000 -7.520382e-04
0.223000 -1.285444e-04
0.224000 5.116829e-04
0.225000 1.164580e-03
0.226000 1.825875e-03
0.227000 2.491125e-03
0.228000 3.155768e-03
0.229000 3.815165e-03
0.230000 4.464653e-03
0.231000 5.099593e-03
0.232000 5.715424e-03
0.233000 6.307708e-03
0.234000 6.872187e-03
0.235000 7.404823e-03
0.236000 7.901849e-03
0.237000 8.359807e-03
0.238000 8.775586e-03
0.239000 9.146457e-03
0.240000 9.470098e-03
0.241000 9.744621e-03
0.242000 9.968588e-03
0.243000 1.014102e-02
0.244000 1.026140e-02
0.245000 1.032969e-02
0.246000 1.034630e-02
0.247000 1.031208e-02
0.248000 1.022832e-02
0.249000 1.009673e-02
0.250000 9.919371e-03
0.251000 9.698665e-03
0.252000 9.437348e-03
0.253000 9.138425e-03
0.254000 8.805140e-03
0.255000 8.440925e-03
0.256000 8.049361e-03
0.257000 7.634137e-03
0.258000 7.199000e-03
0.259000 6.747719e-03
0.260000 6.284041e-03
0.261000 5.811653e-03
0.262000 5.334146e-03
0.263000 4.854982e-03
0.264000 4.377463e-03
0.265000 3.904703e-03
0.266000 3.439608e-03
0.267000 2.984857e-03
0.268000 2.542882e-03
0.269000 2.115863e-03
0.270000 1.705715e-03
0.271000 1.314090e-03
0.272000 9.423723e-04
0.273000 5.916818e-04
0.274000 2.628830e-04
0.275000 -4.340828e-05
0.276000 -3.268129e-04
0.277000 -5.871752e-04
0.278000 -8.245475e-04
0.279000 -1.039174e-03
0.280000 -1.231472e-03
0.281000 -1.402016e-03
0.282000 -1.551515e-03
0.283000 -1.680799e-03
0.284000 -1.790794e-03
0.285000 -1.882510e-03
0.286000 -1.957018e-03
0.287000 -2.015436e-03
0.288000 -2.058914e-03
0.289000 -2.088618e-03
0.290000 -2.105714e-03
0.291000 -2.111362e-03
0.292000 -2.106700e-03
0.293000 -2.092837e-03
0.294000 -2.070844e-03
0.295000 -2.041747e-03
0.296000 -2.006524e-03
0.297000 -1.966097e-03
0.298000 -1.921334e-03
0.299000 -1.873041e-03
0.300000 -1.821968e-03
0.301000 -1.768803e-03
0.302000 -1.714176e-03
0.303000 -1.658662e-03
0.304000 -1.602778e-03
0.305000 -1.546994e-03
0.306000 -1.491727e-03
0.307000 -1.437352e-03
0.308000 -1.384204e-03
0.309000 -1.332580e-03
0.310000 -1.282746e-03
0.311000 -1.234941e-03
0.312000 -1.189381e-03
0.313000 -1.146265e-03
0.314000 -1.105779e-03
0.315000 -1.068099e-03
0.316000 -1.033400e-03
0.317000 -1.001857e-03
0.318000 -9.736486e-04
0.319000 -9.489657e-04
0.320000 -9.280117e-04
0.321000 -9.110084e-04
0.322000 -8.981996e-04
0.323000 -8.898542e-04
0.324000 -8.862703e-04
0.325000 -8.877777e-04
0.326000 -8.947412e-04
0.327000 -9.075624e-04
0.328000 -9.266827e-04
0.329000 -9.525837e-04
0.330000 -9.857892e-04
0.331000 -1.026865e-03
0.332000 -1.076420e-03
0.333000 -1.135103e-03
0.334000 -1.203602e-03
0.335000 -1.282644e-03
0.336000 -1.372988e-03
0.337000 -1.475420e-03
0.338000 -1.590752e-03
0.339000 -1.719810e-03
0.340000 -1.863427e-03
0.341000 -2.022438e-03
0.342000 -2.197660e-03
0.343000 -2.389890e-03
0.344000 -2.599884e-03
0.345000 -2.828346e-03
0.346000 -3.075909e-03
0.347000 -3.343123e-03
0.348000 -3.630428e-03
0.349000 -3.938144e-03
0.350000 -4.266443e-03
0.351000 -4.615335e-03
0.352000 -4.984641e-03
0.353000 -5.373977e-03
0.354000 -5.782731e-03
0.355000 -6.210043e-03
0.356000 -6.654786e-03
0.357000 -7.115552e-03
0.358000 -7.590631e-03
0.359000 -8.078004e-03
0.360000 -8.575329e-03
0.361000 -9.079933e-03
0.362000 -9.588815e-03
0.363000 -1.009864e-02
0.364000 -1.060575e-02
0.365000 -1.110617e-02
0.366000 -1.159563e-02
0.367000 -1.206958e-02
0.368000 -1.252322e-02
0.369000 -1.295153e-02
0.370000 -1.334932e-02
0.371000 -1.371124e-02
0.372000 -1.403189e-02
0.373000 -1.430580e-02
0.374000 -1.452754e-02
0.375000 -1.469179e-02
0.376000 -1.479335e-02
0.377000 -1.482728e-02
0.378000 -1.478889e-02
0.379000 -1.467390e-02
0.380000 -1.447845e-02
0.381000 -1.419917e-02
0.382000 -1.383328e-02
0.383000 -1.337864e-02
0.384000 -1.283379e-02
0.385000 -1.219803e-02
0.386000 -1.147146e-02
0.387000 -1.065497e-02
0.388000 -9.750361e-03
0.389000 -8.760274e-03
0.390000 -7.688246e-03
0.391000 -6.538692e-03
0.392000 -5.316891e-03
0.393000 -4.028957e-03
0.394000 -2.681804e-03
0.395000 -1.283091e-03
0.396000 1.588371e-04
0.397000 1.635025e-03
0.398000 3.135989e-03
0.399000 4.651804e-03
0.400000 6.172210e-03
0.401000 7.686713e-03
0.402000 9.184698e-03
0.403000 1.065554e-02
0.404000 1.208873e-02
0.405000 1.347396e-02
0.406000 1.480129e-02
0.407000 1.606122e-02
0.408000 1.724478e-02
0.409000 1.834369e-02
0.410000 1.935039e-02
0.411000 2.025816e-02
0.412000 2.106118e-02
0.413000 2.175457e-02
0.414000 2.233447e-02
0.415000 2.279804e-02
0.416000 2.314352e-02
0.417000 2.337020e-02
0.418000 2.347842e-02
0.419000 2.346956e-02
0.420000 2.334602e-02
0.421000 2.311114e-02
0.422000 2.276915e-02
0.423000 2.232513e-02
0.424000 2.178491e-02
0.425000 2.115501e-02
0.426000 2.044251e-02
0.427000 1.965500e-02
0.428000 1.880046e-02
0.429000 1.788716e-02
0.430000 1.692357e-02
0.431000 1.591826e-02
0.432000 1.487979e-02
0.433000 1.381667e-02
0.434000 1.273719e-02
0.435000 1.164941e-02
0.436000 1.056108e-02
0.437000 9.479521e-03
0.438000 8.411638e-03
0.439000 7.363823e-03
0.440000 6.341938e-03
0.441000 5.351274e-03
0.442000 4.396537e-03
0.443000 3.481827e-03
0.444000 2.610642e-03
0.445000 1.785872e-03
0.446000 1.009814e-03
0.447000 2.841900e-04
0.448000 -3.898338e-04
0.449000 -1.011617e-03
0.450000 -1.581012e-03
0.451000 -2.098331e-03
0.452000 -2.564301e-03
0.453000 -2.980032e-03
0.454000 -3.346964e-03
0.455000 -3.666833e-03
0.456000 -3.941623e-03
0.457000 -4.173526e-03
0.458000 -4.364900e-03
0.459000 -4.518228e-03
0.460000 -4.636087e-03
0.461000 -4.721102e-03
0.462000 -4.775927e-03
0.463000 -4.803202e-03
0.464000 -4.805539e-03
0.465000 -4.785489e-03
0.466000 -4.745527e-03
0.467000 -4.688033e-03
0.468000 -4.615279e-03
0.469000 -4.529415e-03
0.470000 -4.432462e-03
0.471000 -4.326308e-03
0.472000 -4.212699e-03
0.473000 -4.093241e-03
0.474000 -3.969399e-03
0.475000 -3.842501e-03
0.476000 -3.713736e-03
0.477000 -3.584164e-03
0.478000 -3.454720e-03
0.479000 -3.326217e-03
0.480000 -3.199358e-03
0.481000 -3.074740e-03
0.482000 -2.952863e-03
0.483000 -2.834139e-03
0.484000 -2.718897e-03
0.485000 -2.607391e-03
0.486000 -2.499811e-03
0.487000 -2.396289e-03
0.488000 -2.296902e-03
0.489000 -2.201685e-03
0.490000 -2.110631e-03
0.491000 -2.023703e-03
0.492000 -1.940833e-03
0.493000 -1.861931e-03
0.494000 -1.786890e-03
0.495000 -1.715586e-03
0.496000 -1.647884e-03
0.497000 -1.583642e-03
0.498000 -1.522711e-03
0.499000 -1.464941e-03
0.500000 -1.410179e-03
0.501000 -1.358273e-03
0.502000 -1.309074e-03
0.503000 -1.262435e-03
0.504000 -1.218214e-03
0.505000 -1.176271e-03
0.506000 -1.136476e-03
0.507000 -1.098702e-03
0.508000 -1.062827e-03
0.509000 -1.028737e-03
0.510000 -9.963239e-04
0.511000 -9.654845e-04
0.512000 -9.361226e-04
0.513000 -9.081478e-04
0.514000 -8.814751e-04
0.515000 -8.560250e-04
0.516000 -8.317233e-04
0.517000 -8.085007e-04
0.518000 -7.862926e-04
0.519000 -7.650386e-04
0.520000 -7.446827e-04
0.521000 -7.251727e-04
0.522000 -7.064600e-04
0.523000 -6.884993e-04
0.524000 -6.712486e-04
0.525000 -6.546687e-04
0.526000 -6.387230e-04
0.527000 -6.233778e-04
0.528000 -6.086011e-04
0.529000 -5.943636e-04
0.530000 -5.806377e-04
0.531000 -5.673976e-04
0.532000 -5.546193e-04
0.533000 -5.422803e-04
0.534000 -5.303595e-04
0.535000 -5.188372e-04
0.536000 -5.076948e-04
0.537000 -4.969150e-04
0.538000 -4.864814e-04
0.539000 -4.763787e-04
0.540000 -4.665924e-04
0.541000 -4.571088e-04
0.542000 -4.479150e-04
0.543000 -4.389990e-04
0.544000 -4.303493e-04
0.545000 -4.219549e-04
0.546000 -4.138056e-04
0.547000 -4.058916e-04
0.548000 -3.982037e-04
0.549000 -3.907332e-04
0.550000 -3.834717e-04
0.551000 -3.764112e-04
0.552000 -3.695443e-04
0.553000 -3.628638e-04
0.554000 -3.563629e-04
0.555000 -3.500350e-04
0.556000 -3.438739e-04
0.557000 -3.378739e-04
0.558000 -3.320291e-04
0.559000 -3.263342e-04
0.560000 -3.207840e-04
0.561000 -3.153737e-04
0.562000 -3.100984e-04
0.563000 -3.049538e-04
0.564000 -2.999354e-04
0.565000 -2.950391e-04
0.566000 -2.902609e-04
0.567000 -2.855971e-04
0.568000 -2.810440e-04
0.569000 -2.765981e-04
0.570000 -2.722560e-04
0.571000 -2.680145e-04
0.572000 -2.638705e-04
0.573000 -2.598209e-04
0.574000 -2.558630e-04
0.575000 -2.519940e-04
0.576000 -2.482113e-04
0.577000 -2.445121e-04
0.578000 -2.408942e-04
0.579000 -2.373552e-04
0.580000 -2.338927e-04
0.581000 -2.305045e-04
0.582000 -2.271886e-04
0.583000 -2.239429e-04
0.584000 -2.207655e-04
0.585000 -2.176543e-04
0.586000 -2.146077e-04
0.587000 -2.116237e-04
0.588000 -2.087008e-04
0.589000 -2.058372e-04
0.590000 -2.030314e-04
0.591000 -2.002818e-04
0.592000 -1.975869e-04
0.593000 -1.949453e-04
0.594000 -1.923555e-04
0.595000 -1.898164e-04
0.596000 -1.873264e-04
0.597000 -1.848844e-04
0.598000 -1.824892e-04
0.599000 -1.801395e-04
0.600000 -1.778343e-04
0.601000 -1.755723e-04
0.602000 -1.733526e-04
0.603000 -1.711741e-04
0.604000 -1.690357e-04
0.605000 -1.669366e-04
0.606000 -1.648757e-04
0.607000 -1.628521e-04
0.608000 -1.608650e-04
0.609000 -1.589135e-04
0.610000 -1.569966e-04
0.611000 -1.551137e-04
0.612000 -1.532639e-04
0.613000 -1.514465e-04
0.614000 -1.496607e-04
0.615000 -1.479057e-04
0.616000 -1.461809e-04
0.617000 -1.444856e-04
0.618000 -1.428191e-04
0.619000 -1.411809e-04
0.620000 -1.395701e-04
0.621000 -1.379863e-04
0.622000 -1.364288e-04
0.623000 -1.348972e-04
0.624000 -1.333907e-04
0.625000 -1.319088e-04
0.626000 -1.304511e-04
0.627000 -1.290170e-04
0.628000 -1.276060e-04
0.629000 -1.262176e-04
0.630000 -1.248513e-04
0.631000 -1.235068e-04
0.632000 -1.221834e-04
0.633000 -1.208808e-04
0.634000 -1.195985e-04
0.635000 -1.183362e-04
0.636000 -1.170934e-04
0.637000 -1.158697e-04
0.638000 -1.146647e-04
0.639000 -1.134781e-04
0.640000 -1.123095e-04
0.641000 -1.111585e-04
0.642000 -1.100247e-04
0.643000 -1.089080e-04
0.644000 -1.078078e-04
0.645000 -1.067239e-04
0.646000 -1.056559e-04
0.647000 -1.046036e-04
0.648000 -1.035666e-04
0.649000 -1.025447e-04
0.650000 -1.015376e-04
0.651000 -1.005449e-04
0.652000 -9.956649e-05
0.653000 -9.860199e-05
0.654000 -9.765116e-05
0.655000 -9.671376e-05
0.656000 -9.578953e-05
0.657000 -9.487823e-05
0.658000 -9.397962e-05
0.659000 -9.309347e-05
0.660000 -9.221956e-05
0.661000 -9.135765e-05
0.662000 -9.050754e-05
0.663000 -8.966901e-05
0.664000 -8.884185e-05
0.665000 -8.802586e-05
0.666000 -8.722084e-05
0.667000 -8.642659e-05
0.668000 -8.564294e-05
0.669000 -8.486968e-05
0.670000 -8.410664e-05
0.671000 -8.335365e-05
0.672000 -8.261052e-05
0.673000 -8.187708e-05
0.674000 -8.115318e-05
0.675000 -8.043865e-05
0.676000 -7.973332e-05
0.677000 -7.903705e-05
0.678000 -7.834967e-05
0.679000 -7.767105e-05
0.680000 -7.700102e-05
0.681000 -7.633946e-05
0.682000 -7.568621e-05
0.683000 -7.504115e-05
0.684000 -7.440413e-05
0.685000 -7.377502e-05
0.686000 -7.315370e-05
0.687000 -7.254004e-05
0.688000 -7.193391e-05
0.689000 -7.133519e-05
0.690000 -7.074377e-05
0.691000 -7.015952e-05
0.692000 -6.958233e-05
0.693000 -6.901209e-05
0.694000 -6.844869e-05
0.695000 -6.789202e-05
0.696000 -6.734197e-05
0.697000 -6.679845e-05
0.698000 -6.626134e-05
0.699000 -6.573056e-05
0.700000 -6.520600e-05
0.701000 -6.468756e-05
0.702000 -6.417516e-05
0.703000 -6.366869e-05
0.704000 -6.316807e-05
0.705000 -6.267322e-05
0.706000 -6.218403e-05
0.707000 -6.170044e-05
0.708000 -6.122235e-05
0.709000 -6.074967e-05
0.710000 -6.028234e-05
0.711000 -5.982027e-05
0.712000 -5.936338e-05
0.713000 -5.891160e-05
0.714000 -5.846485e-05
0.715000 -5.802306e-05
0.716000 -5.758615e-05
0.717000 -5.715405e-05
0.718000 -5.672670e-05
0.719000 -5.630403e-05
0.720000 -5.588596e-05
0.721000 -5.547244e-05
0.722000 -5.506340e-05
0.723000 -5.465876e-05
0.724000 -5.425848e-05
0.725000 -5.386249e-05
0.726000 -5.347073e-05
0.727000 -5.308314e-05
0.728000 -5.269965e-05
0.729000 -5.232023e-05
0.730000 -5.194480e-05
0.731000 -5.157331e-05
0.732000 -5.120571e-05
0.733000 -5.084194e-05
0.734000 -5.048196e-05
0.735000 -5.012570e-05
0.736000 -4.977312e-05
0.737000 -4.942418e-05
0.738000 -4.907881e-05
0.739000 -4.873697e-05
0.740000 -4.839862e-05
0.741000 -4.806371e-05
0.742000 -4.773219e-05
0.743000 -4.740401e-05
0.744000 -4.707913e-05
0.745000 -4.675752e-05
0.746000 -4.643912e-05
0.747000 -4.612389e-05
0.748000 -4.581179e-05
0.749000 -4.550278e-05
0.750000 -4.519683e-05
0.751000 -4.489388e-05
0.752000 -4.459391e-05
0.753000 -4.429687e-05
0.754000 -4.400272e-05
0.755000 -4.371143e-05
0.756000 -4.342297e-05
0.757000 -4.313729e-05
0.758000 -4.285436e-05
0.759000 -4.257415e-05
0.760000 -4.229661e-05
0.761000 -4.202173e-05
0.762000 -4.174946e-05
0.763000 -4.147977e-05
0.764000 -4.121263e-05
0.765000 -4.094801e-05
0.766000 -4.068588e-05
0.767000 -4.042620e-05
0.768000 -4.016895e-05
0.769000 -3.991409e-05
0.770000 -3.966160e-05
0.771000 -3.941145e-05
0.772000 -3.916360e-05
0.773000 -3.891804e-05
0.774000 -3.867473e-05
0.775000 -3.843365e-05
0.776000 -3.819476e-05
0.777000 -3.795805e-05
0.778000 -3.772349e-05
0.779000 -3.749105e-05
0.780000 -3.726070e-05
0.781000 -3.703243e-05
0.782000 -3.680620e-05
0.783000 -3.658200e-05
0.784000 -3.635979e-05
0.785000 -3.613956e-05
0.786000 -3.592128e-05
0.787000 -3.570493e-05
0.788000 -3.549049e-05
0.789000 -3.527794e-05
0.790000 -3.506724e-05
0.791000 -3.485839e-05
0.792000 -3.465136e-05
0.793000 -3.444613e-05
0.794000 -3.424268e-05
0.795000 -3.404099e-05
0.796000 -3.384103e-05
0.797000 -3.364280e-05
0.798000 -3.344626e-05
0.799000 -3.325141e-05
0.800000 -3.305822e-05
0.801000 -3.286667e-05
0.802000 -3.267674e-05
0.803000 -3.248842e-05
0.804000 -3.230169e-05
0.805000 -3.211653e-05
0.806000 -3.193293e-05
0.807000 -3.175086e-05
0.808000 -3.157031e-05
0.809000 -3.139126e-05
0.810000 -3.121370e-05
0.811000 -3.103761e-05
0.812000 -3.086298e-05
0.813000 -3.068978e-05
0.814000 -3.051800e-05
0.815000 -3.034764e-05
0.816000 -3.017866e-05
0.817000 -3.001106e-05
0.818000 -2.984483e-05
0.819000 -2.967994e-05
0.820000 -2.951638e-05
0.821000 -2.935415e-05
0.822000 -2.919322e-05
0.823000 -2.903358e-05
0.824000 -2.887522e-05
0.825000 -2.871813e-05
0.826000 -2.856228e-05
0.827000 -2.840768e-05
0.828000 -2.825429e-05
0.829000 -2.810213e-05
0.830000 -2.795116e-05
0.831000 -2.780137e-05
0.832000 -2.765277e-05
0.833000 -2.750532e-05
0.834000 -2.735903e-05
0.835000 -2.721388e-05
0.836000 -2.706985e-05
0.837000 -2.692694e-05
0.838000 -2.678513e-05
0.839000 -2.664442e-05
0.840000 -2.650479e-05
0.841000 -2.636623e-05
0.842000 -2.622873e-05
0.843000 -2.609228e-05
0.844000 -2.595687e-05
0.845000 -2.582249e-05
0.846000 -2.568912e-05
0.847000 -2.555677e-05
0.848000 -2.542541e-05
0.849000 -2.529504e-05
0.850000 -2.516565e-05
0.851000 -2.503723e-05
0.852000 -2.490977e-05
0.853000 -2.478326e-05
0.854000 -2.465769e-05
0.855000 -2.453305e-05
0.856000 -2.440933e-05
0.857000 -2.428653e-05
0.858000 -2.416463e-05
0.859000 -2.404362e-05
0.860000 -2.392351e-05
0.861000 -2.380427e-05
0.862000 -2.368590e-05
0.863000 -2.356839e-05
0.864000 -2.345174e-05
0.865000 -2.333593e-05
0.866000 -2.322096e-05
0.867000 -2.310682e-05
0.868000 -2.299350e-05
0.869000 -2.288099e-05
0.870000 -2.276929e-05
0.871000 -2.265839e-05
0.872000 -2.254828e-05
0.873000 -2.243895e-05
0.874000 -2.233040e-05
0.875000 -2.222261e-05
0.876000 -2.211559e-05
0.877000 -2.200932e-05
0.878000 -2.190380e-05
0.879000 -2.179902e-05
0.880000 -2.169498e-05
0.881000 -2.159166e-05
0.882000 -2.148906e-05
0.883000 -2.138717e-05
0.884000 -2.128600e-05
0.885000 -2.118552e-05
0.886000 -2.108574e-05
0.887000 -2.098664e-05
0.888000 -2.088823e-05
0.889000 -2.079049e-05
0.890000 -2.069342e-05
0.891000 -2.059702e-05
0.892000 -2.050127e-05
0.893000 -2.040617e-05
0.894000 -2.031172e-05
0.895000 -2.021791e-05
0.896000 -2.012474e-05
0.897000 -2.003219e-05
0.898000 -1.994026e-05
0.899000 -1.984896e-05
0.900000 -1.975826e-05
0.901000 -1.966817e-05
0.902000 -1.957868e-05
0.903000 -1.948979e-05
0.904000 -1.940149e-05
0.905000 -1.931378e-05
0.906000 -1.922664e-05
0.907000 -1.914008e-05
0.908000 -1.905409e-05
0.909000 -1.896867e-05
0.910000 -1.888381e-05
0.911000 -1.879950e-05
0.912000 -1.871574e-05
0.913000 -1.863253e-05
0.914000 -1.854986e-05
0.915000 -1.846773e-05
0.916000 -1.838613e-05
0.917000 -1.830506e-05
0.918000 -1.822451e-05
0.919000 -1.814448e-05
0.920000 -1.806496e-05
0.921000 -1.798596e-05
0.922000 -1.790745e-05
0.923000 -1.782946e-05
0.924000 -1.775195e-05
0.925000 -1.767494e-05
0.926000 -1.759842e-05
0.927000 -1.752239e-05
0.928000 -1.744683e-05
0.929000 -1.737176e-05
0.930000 -1.729715e-05
0.931000 -1.722302e-05
0.932000 -1.714934e-05
0.933000 -1.707613e-05
0.934000 -1.700338e-05
0.935000 -1.693108e-05
0.936000 -1.685923e-05
0.937000 -1.678783e-05
0.938000 -1.671687e-05
0.939000 -1.664635e-05
0.940000 -1.657626e-05
0.941000 -1.650660e-05
0.942000 -1.643738e-05
0.943000 -1.636858e-05
0.944000 -1.630020e-05
0.945000 -1.623223e-05
0.946000 -1.616469e-05
0.947000 -1.609755e-05
0.948000 -1.603082e-05
0.949000 -1.596450e-05
0.950000 -1.589857e-05
0.951000 -1.583305e-05
0.952000 -1.576792e-05
0.953000 -1.570318e-05
0.954000 -1.563883e-05
0.955000 -1.557487e-05
0.956000 -1.551129e-05
0.957000 -1.544809e-05
0.958000 -1.538527e-05
0.959000 -1.532282e-05
0.960000 -1.526074e-05
0.961000 -1.519903e-05
0.962000 -1.513768e-05
0.963000 -1.507670e-05
0.964000 -1.501607e-05
0.965000 -1.495580e-05
0.966000 -1.489589e-05
0.967000 -1.483633e-05
0.968000 -1.477711e-05
0.969000 -1.471824e-05
0.970000 -1.465972e-05
0.971000 -1.460153e-05
0.972000 -1.454368e-05
0.973000 -1.448617e-05
0.974000 -1.442899e-05
0.975000 -1.437214e-05
0.976000 -1.431562e-05
0.977000 -1.425942e-05
0.978000 -1.420355e-05
0.979000 -1.414799e-05
0.980000 -1.409276e-05
0.981000 -1.403784e-05
0.982000 -1.398323e-05
0.983000 -1.392893e-05
0.984000 -1.387494e-05
0.985000 -1.382126e-05
0.986000 -1.376788e-05
0.987000 -1.371480e-05
0.988000 -1.366202e-05
0.989000 -1.360954e-05
0.990000 -1.355736e-05
0.991000 -1.350546e-05
0.992000 -1.345386e-05
0.993000 -1.340254e-05
0.994000 -1.335151e-05
0.995000 -1.330077e-05
0.996000 -1.325031e-05
0.997000 -1.320012e-05
0.998000 -1.315022e-05
0.999000 -1.310059e-05
1.000000 -1.305123e-05
1.001000 -1.300215e-05
1.002000 -1.295334e-05
1.003000 -1.290479e-05
1.004000 -1.285651e-05
1.005000 -1.280850e-05
1.006000 -1.276075e-05
1.007000 -1.271325e-05
1.008000 -1.266602e-05
1.009000 -1.261904e-05
1.010000 -1.257232e-05
1.011000 -1.252585e-05
1.012000 -1.247963e-05
1.013000 -1.243366e-05
1.014000 -1.238794e-05
1.015000 -1.234246e-05
1.016000 -1.229723e-05
1.017000 -1.225224e-05
1.018000 -1.220749e-05
1.019000 -1.216298e-05
1.020000 -1.211871e-05
1.021000 -1.207467e-05
1.022000 -1.203087e-05
1.023000 -1.198730e-05
1.024000 -1.194396e-05
1.025000 -1.190085e-05
1.026000 -1.185796e-05
1.027000 -1.181530e-05
1.028000 -1.177287e-05
1.029000 -1.173066e-05
1.030000 -1.168867e-05
1.031000 -1.164690e-05
1.032000 -1.160535e-05
1.033000 -1.156402e-05
1.034000 -1.152290e-05
1.035000 -1.148199e-05
1.036000 -1.144130e-05
1.037000 -1.140082e-05
1.038000 -1.136054e-05
1.039000 -1.132048e-05
1.040000 -1.128062e-05
1.041000 -1.124097e-05
1.042000 -1.120152e-05
1.043000 -1.116227e-05
1.044000 -1.112322e-05
1.045000 -1.108438e-05
1.046000 -1.104573e-05
1.047000 -1.100728e-05
1.048000 -1.096902e-05
1.049000 -1.093096e-05
1.050000 -1.089310e-05
1.051000 -1.085542e-05
1.052000 -1.081793e-05
1.053000 -1.078064e-05
1.054000 -1.074353e-05
1.055000 -1.070661e-05
1.056000 -1.066987e-05
1.057000 -1.063332e-05
1.058000 -1.059695e-05
1.059000 -1.056077e-05
1.060000 -1.052476e-05
1.061000 -1.048893e-05
1.062000 -1.045329e-05
1.063000 -1.041782e-05
1.064000 -1.038252e-05
1.065000 -1.034740e-05
1.066000 -1.031245e-05
1.067000 -1.027768e-05
1.068000 -1.024308e-05
1.069000 -1.020865e-05
1.070000 -1.017438e-05
1.071000 -1.014029e-05
1.072000 -1.010636e-05
1.073000 -1.007260e-05
1.074000 -1.003900e-05
1.075000 -1.000557e-05
1.076000 -9.972302e-06
1.077000 -9.939195e-06
1.078000 -9.906247e-06
1.079000 -9.873460e-06
