-0.120000 1.324984e-06
-0.119000 1.317809e-06
-0.118000 1.310681e-06
-0.117000 1.303600e-06
-0.116000 1.296566e-06
-0.115000 1.289579e-06
-0.114000 1.282638e-06
-0.113000 1.275742e-06
-0.112000 1.268892e-06
-0.111000 1.262087e-06
-0.110000 1.255327e-06
-0.109000 1.248611e-06
-0.108000 1.241939e-06
-0.107000 1.235310e-06
-0.106000 1.228725e-06
-0.105000 1.222183e-06
-0.104000 1.215684e-06
-0.103000 1.209227e-06
-0.102000 1.202811e-06
-0.101000 1.196438e-06
-0.100000 1.190106e-06
-0.099000 1.183815e-06
-0.098000 1.177564e-06
-0.097000 1.171354e-06
-0.096000 1.165185e-06
-0.095000 1.159054e-06
-0.094000 1.152964e-06
-0.093000 1.146912e-06
-0.092000 1.140900e-06
-0.091000 1.134926e-06
-0.090000 1.128990e-06
-0.089000 1.123092e-06
-0.088000 1.117232e-06
-0.087000 1.111410e-06
-0.086000 1.105625e-06
-0.085000 1.099876e-06
-0.084000 1.094164e-06
-0.083000 1.088489e-06
-0.082000 1.082849e-06
-0.081000 1.077245e-06
-0.080000 1.071677e-06
-0.079000 1.066144e-06
-0.078000 1.060646e-06
-0.077000 1.055182e-06
-0.076000 1.049754e-06
-0.075000 1.044359e-06
-0.074000 1.038998e-06
-0.073000 1.033671e-06
-0.072000 1.028378e-06
-0.071000 1.023117e-06
-0.070000 1.017890e-06
-0.069000 1.012695e-06
-0.068000 1.007533e-06
-0.067000 1.002403e-06
-0.066000 9.973050e-07
-0.065000 9.922388e-07
-0.064000 9.872041e-07
-0.063000 9.822008e-07
-0.062000 9.772285e-07
-0.061000 9.722870e-07
-0.060000 9.673762e-07
-0.059000 9.624958e-07
-0.058000 9.576455e-07
-0.057000 9.528253e-07
-0.056000 9.480347e-07
-0.055000 9.432737e-07
-0.054000 9.385421e-07
-0.053000 9.338395e-07
-0.052000 9.291658e-07
-0.051000 9.245209e-07
-0.050000 9.199044e-07
-0.049000 9.153162e-07
-0.048000 9.107560e-07
-0.047000 9.062238e-07
-0.046000 9.017192e-07
-0.045000 8.972421e-07
-0.044000 8.927923e-07
-0.043000 8.883696e-07
-0.042000 8.839738e-07
-0.041000 8.796047e-07
-0.040000 8.752621e-07
-0.039000 8.709458e-07
-0.038000 8.666557e-07
-0.037000 8.623916e-07
-0.036000 8.581532e-07
-0.035000 8.539404e-07
-0.034000 8.497531e-07
-0.033000 8.455910e-07
-0.032000 8.414539e-07
-0.031000 8.373417e-07
-0.030000 8.332543e-07
-0.029000 8.291914e-07
-0.028000 8.251528e-07
-0.027000 8.211385e-07
-0.026000 8.171482e-07
-0.025000 8.131818e-07
-0.024000 8.092390e-07
-0.023000 8.053198e-07
-0.022000 8.014240e-07
-0.021000 7.975513e-07
-0.020000 7.937017e-07
-0.019000 7.898751e-07
-0.018000 7.860711e-07
-0.017000 7.822897e-07
-0.016000 7.785308e-07
-0.015000 7.747941e-07
-0.014000 7.710795e-07
-0.013000 7.673869e-07
-0.012000 7.637161e-07
-0.011000 7.600669e-07
-0.010000 7.564393e-07
-0.009000 7.528331e-07
-0.008000 7.492480e-07
-0.007000 7.456841e-07
-0.006000 7.421411e-07
-0.005000 7.386189e-07
-0.004000 7.351173e-07
-0.003000 7.316363e-07
-0.002000 7.281756e-07
-0.001000 7.247352e-07
0.000000 7.213149e-07
0.001000 7.179145e-07
0.002000 7.145341e-07
0.003000 7.111733e-07
0.004000 7.078321e-07
0.005000 7.045104e-07
0.006000 7.012080e-07
0.007000 6.979248e-07
0.008000 6.946607e-07
0.009000 6.914157e-07
0.010000 6.881895e-07
0.011000 6.849820e-07
0.012000 6.817933e-07
0.013000 6.786231e-07
0.014000 6.754714e-07
0.015000 6.723381e-07
0.016000 6.692232e-07
0.017000 6.661266e-07
0.018000 6.630483e-07
0.019000 6.599882e-07
0.020000 6.569463e-07
0.021000 6.539227e-07
0.022000 6.509174e-07
0.023000 6.479305e-07
0.024000 6.449621e-07
0.025000 6.420124e-07
0.026000 6.390815e-07
0.027000 6.361699e-07
0.028000 6.332778e-07
0.029000 6.304056e-07
0.030000 6.275538e-07
0.031000 6.247232e-07
0.032000 6.219143e-07
0.033000 6.191282e-07
0.034000 6.163658e-07
0.035000 6.136284e-07
0.036000 6.109173e-07
0.037000 6.082343e-07
0.038000 6.055813e-07
0.039000 6.029604e-07
0.040000 6.003741e-07
0.041000 5.978254e-07
0.042000 5.953176e-07
0.043000 5.928544e-07
0.044000 5.904399e-07
0.045000 5.880790e-07
0.046000 5.857770e-07
0.047000 5.835399e-07
0.048000 5.813744e-07
0.049000 5.792879e-07
0.050000 5.772887e-07
0.051000 5.753860e-07
0.052000 5.735897e-07
0.053000 5.719108e-07
0.054000 5.703616e-07
0.055000 5.689551e-07
0.056000 5.677057e-07
0.057000 5.666287e-07
0.058000 5.657409e-07
0.059000 5.650602e-07
0.060000 5.646056e-07
0.061000 5.643977e-07
0.062000 5.644579e-07
0.063000 5.648090e-07
0.064000 5.654750e-07
0.065000 5.664809e-07
0.066000 5.678526e-07
0.067000 5.696168e-07
0.068000 5.718012e-07
0.069000 5.744337e-07
0.070000 5.775427e-07
0.071000 5.811568e-07
0.072000 5.853042e-07
0.073000 5.900127e-07
0.074000 5.953096e-07
0.075000 6.012208e-07
0.076000 6.077708e-07
0.077000 6.149821e-07
0.078000 6.228750e-07
0.079000 6.314668e-07
0.080000 6.407719e-07
0.081000 6.508005e-07
0.082000 6.615589e-07
0.083000 6.730485e-07
0.084000 6.852655e-07
0.085000 6.982002e-07
0.086000 7.118369e-07
0.087000 7.261531e-07
0.088000 7.411191e-07
0.089000 7.566977e-07
0.090000 7.728436e-07
0.091000 7.895034e-07
0.092000 8.066148e-07
0.093000 8.241066e-07
0.094000 8.418985e-07
0.095000 8.599004e-07
0.096000 8.780126e-07
0.097000 8.961254e-07
0.098000 9.141184e-07
0.099000 9.318606e-07
0.100000 9.492097e-07
0.101000 9.660113e-07
0.102000 9.820982e-07
0.103000 9.972889e-07
0.104000 1.011386e-06
0.105000 1.024176e-06
0.106000 1.035421e-06
0.107000 1.044862e-06
0.108000 1.052210e-06
0.109000 1.057142e-06
0.110000 1.059293e-06
0.111000 1.058245e-06
0.112000 1.053521e-06
0.113000 1.044566e-06
0.114000 1.030733e-06
0.115000 1.011260e-06
0.116000 9.852515e-07
0.117000 9.516412e-07
0.118000 9.091628e-07
0.119000 8.563058e-07
0.120000 7.912670e-07
0.121000 7.118920e-07
0.122000 6.156074e-07
0.123000 4.993413e-07
0.124000 3.594301e-07
0.125000 1.915116e-07
0.126000 -9.599124e-09
0.127000 -2.500532e-07
0.128000 -5.371312e-07
0.129000 -8.794308e-07
0.130000 -1.287079e-06
0.131000 -1.771976e-06
0.132000 -2.348065e-06
0.133000 -3.031639e-06
0.134000 -3.841690e-06
0.135000 -4.800286e-06
0.136000 -5.932998e-06
0.137000 -7.269374e-06
0.138000 -8.843458e-06
0.139000 -1.069435e-05
0.140000 -1.286683e-05
0.141000 -1.541204e-05
0.142000 -1.838816e-05
0.143000 -2.186126e-05
0.144000 -2.590604e-05
0.145000 -3.060674e-05
0.146000 -3.605805e-05
0.147000 -4.236605e-05
0.148000 -4.964917e-05
0.149000 -5.803918e-05
0.150000 -6.768221e-05
0.151000 -7.873969e-05
0.152000 -9.138933e-05
0.153000 -1.058260e-04
0.154000 -1.222627e-04
0.155000 -1.409310e-04
0.156000 -1.620819e-04
0.157000 -1.859863e-04
0.158000 -2.129350e-04
0.159000 -2.432391e-04
0.160000 -2.772294e-04
0.161000 -3.152560e-04
0.162000 -3.576875e-04
0.163000 -4.049097e-04
0.164000 -4.573236e-04
0.165000 -5.153434e-04
0.166000 -5.793940e-04
0.167000 -6.499072e-04
0.168000 -7.273184e-04
0.169000 -8.120617e-04
0.170000 -9.045652e-04
0.171000 -1.005245e-03
0.172000 -1.114499e-03
0.173000 -1.232699e-03
0.174000 -1.360186e-03
0.175000 -1.497258e-03
0.176000 -1.644164e-03
0.177000 -1.801096e-03
0.178000 -1.968175e-03
0.179000 -2.145445e-03
0.180000 -2.332865e-03
0.181000 -2.530292e-03
0.182000 -2.737480e-03
0.183000 -2.954064e-03
0.184000 -3.179555e-03
0.185000 -3.413328e-03
0.186000 -3.654620e-03
0.187000 -3.902520e-03
0.188000 -4.155965e-03
0.189000 -4.413737e-03
0.190000 -4.674461e-03
0.191000 -4.936606e-03
0.192000 -5.198489e-03
0.193000 -5.458273e-03
0.194000 -5.713984e-03
0.195000 -5.963512e-03
0.196000 -6.204630e-03
0.197000 -6.435002e-03
0.198000 -6.652207e-03
0.199000 -6.853756e-03
0.200000 -7.037112e-03
0.201000 -7.199720e-03
0.202000 -7.339030e-03
0.203000 -7.452526e-03
0.204000 -7.537760e-03
0.205000 -7.592377e-03
0.206000 -7.614153e-03
0.207000 -7.601025e-03
0.208000 -7.551122e-03
0.209000 -7.462800e-03
0.210000 -7.334672e-03
0.211000 -7.165634e-03
0.212000 -6.954894e-03
0.213000 -6.701998e-03
0.214000 -6.406846e-03
0.215000 -6.069716e-03
0.216000 -5.691268e-03
0.217000 -5.272563e-03
0.218000 -4.815057e-03
0.219000 -4.320606e-03
0.220000 -3.791460e-03
0.221000 -3.230246e-03
0.222000 -2.639955e-03
0.223000 -2.023920e-03
0.224000 -1.385785e-03
0.225000 -7.294788e-04
0.226000 -5.917221e-05
0.227000 6.207580e-04
0.228000 1.305775e-03
0.229000 1.991227e-03
0.230000 2.672398e-03
0.231000 3.344557e-03
0.232000 4.003011e-03
0.233000 4.643154e-03
0.234000 5.260518e-03
0.235000 5.850824e-03
0.236000 6.410027e-03
0.237000 6.934360e-03
0.238000 7.420375e-03
0.239000 7.864981e-03
0.240000 8.265473e-03
0.241000 8.619558e-03
0.242000 8.925379e-03
0.243000 9.181527e-03
0.244000 9.387053e-03
0.245000 9.541471e-03
0.246000 9.644752e-03
0.247000 9.697322e-03
0.248000 9.700040e-03
0.249000 9.654188e-03
0.250000 9.561438e-03
0.251000 9.423830e-03
0.252000 9.243736e-03
0.253000 9.023829e-03
0.254000 8.767038e-03
0.255000 8.476513e-03
0.256000 8.155581e-03
0.257000 7.807707e-03
0.258000 7.436446e-03
0.259000 7.045405e-03
0.260000 6.638202e-03
0.261000 6.218428e-03
0.262000 5.789605e-03
0.263000 5.355157e-03
0.264000 4.918378e-03
0.265000 4.482402e-03
0.266000 4.050179e-03
0.267000 3.624454e-03
0.268000 3.207751e-03
0.269000 2.802360e-03
0.270000 2.410323e-03
0.271000 2.033435e-03
0.272000 1.673236e-03
0.273000 1.331014e-03
0.274000 1.007810e-03
0.275000 7.044220e-04
0.276000 4.214165e-04
0.277000 1.591398e-04
0.278000 -8.226940e-05
0.279000 -3.028646e-04
0.280000 -5.028756e-04
0.281000 -6.826915e-04
0.282000 -8.428429e-04
0.283000 -9.839845e-04
0.284000 -1.106877e-03
0.285000 -1.212370e-03
0.286000 -1.301383e-03
0.287000 -1.374892e-03
0.288000 -1.433914e-03
0.289000 -1.479486e-03
0.290000 -1.512663e-03
0.291000 -1.534492e-03
0.292000 -1.546015e-03
0.293000 -1.548247e-03
0.294000 -1.542176e-03
0.295000 -1.528750e-03
0.296000 -1.508874e-03
0.297000 -1.483404e-03
0.298000 -1.453145e-03
0.299000 -1.418844e-03
0.300000 -1.381191e-03
0.301000 -1.340817e-03
0.302000 -1.298294e-03
0.303000 -1.254135e-03
0.304000 -1.208794e-03
0.305000 -1.162669e-03
0.306000 -1.116099e-03
0.307000 -1.069373e-03
0.308000 -1.022724e-03
0.309000 -9.763375e-04
0.310000 -9.303485e-04
0.311000 -8.848469e-04
0.312000 -8.398778e-04
0.313000 -7.954433e-04
0.314000 -7.515041e-04
0.315000 -7.079811e-04
0.316000 -6.647558e-04
0.317000 -6.216718e-04
0.318000 -5.785346e-04
0.319000 -5.351124e-04
0.320000 -4.911362e-04
0.321000 -4.462989e-04
0.322000 -4.002556e-04
0.323000 -3.526228e-04
0.324000 -3.029775e-04
0.325000 -2.508566e-04
0.326000 -1.957561e-04
0.327000 -1.371304e-04
0.328000 -7.439150e-05
0.329000 -6.908765e-06
0.330000 6.599131e-05
0.331000 1.450248e-04
0.332000 2.309498e-04
0.333000 3.245649e-04
0.334000 4.267074e-04
0.335000 5.382505e-04
0.336000 6.600998e-04
0.337000 7.931886e-04
0.338000 9.384722e-04
0.339000 1.096921e-03
0.340000 1.269514e-03
0.341000 1.457226e-03
0.342000 1.661020e-03
0.343000 1.881835e-03
0.344000 2.120569e-03
0.345000 2.378069e-03
0.346000 2.655113e-03
0.347000 2.952388e-03
0.348000 3.270481e-03
0.349000 3.609848e-03
0.350000 3.970803e-03
0.351000 4.353491e-03
0.352000 4.757869e-03
0.353000 5.183682e-03
0.354000 5.630446e-03
0.355000 6.097420e-03
0.356000 6.583593e-03
0.357000 7.087664e-03
0.358000 7.608020e-03
0.359000 8.142729e-03
0.360000 8.689524e-03
0.361000 9.245796e-03
0.362000 9.808589e-03
0.363000 1.037460e-02
0.364000 1.094018e-02
0.365000 1.150135e-02
0.366000 1.205382e-02
0.367000 1.259297e-02
0.368000 1.311394e-02
0.369000 1.361161e-02
0.370000 1.408066e-02
0.371000 1.451560e-02
0.372000 1.491083e-02
0.373000 1.526069e-02
0.374000 1.555952e-02
0.375000 1.580173e-02
0.376000 1.598184e-02
0.377000 1.609458e-02
0.378000 1.613496e-02
0.379000 1.609830e-02
0.380000 1.598038e-02
0.381000 1.577743e-02
0.382000 1.548626e-02
0.383000 1.510429e-02
0.384000 1.462964e-02
0.385000 1.406115e-02
0.386000 1.339847e-02
0.387000 1.264207e-02
0.388000 1.179330e-02
0.389000 1.085437e-02
0.390000 9.828416e-03
0.391000 8.719446e-03
0.392000 7.532373e-03
0.393000 6.272968e-03
0.394000 4.947831e-03
0.395000 3.564345e-03
0.396000 2.130615e-03
0.397000 6.554023e-04
0.398000 -8.519608e-04
0.399000 -2.381655e-03
0.400000 -3.923474e-03
0.401000 -5.466929e-03
0.402000 -7.001355e-03
0.403000 -8.516028e-03
0.404000 -1.000028e-02
0.405000 -1.144362e-02
0.406000 -1.283584e-02
0.407000 -1.416713e-02
0.408000 -1.542820e-02
0.409000 -1.661036e-02
0.410000 -1.770563e-02
0.411000 -1.870682e-02
0.412000 -1.960762e-02
0.413000 -2.040262e-02
0.414000 -2.108743e-02
0.415000 -2.165864e-02
0.416000 -2.211392e-02
0.417000 -2.245197e-02
0.418000 -2.267256e-02
0.419000 -2.277650e-02
0.420000 -2.276560e-02
0.421000 -2.264264e-02
0.422000 -2.241134e-02
0.423000 -2.207625e-02
0.424000 -2.164272e-02
0.425000 -2.111679e-02
0.426000 -2.050513e-02
0.427000 -1.981493e-02
0.428000 -1.905382e-02
0.429000 -1.822975e-02
0.430000 -1.735092e-02
0.431000 -1.642567e-02
0.432000 -1.546239e-02
0.433000 -1.446939e-02
0.434000 -1.345490e-02
0.435000 -1.242690e-02
0.436000 -1.139310e-02
0.437000 -1.036084e-02
0.438000 -9.337064e-03
0.439000 -8.328242e-03
0.440000 -7.340339e-03
0.441000 -6.378783e-03
0.442000 -5.448435e-03
0.443000 -4.553579e-03
0.444000 -3.697908e-03
0.445000 -2.884528e-03
0.446000 -2.115967e-03
0.447000 -1.394181e-03
0.448000 -7.205829e-04
0.449000 -9.606399e-05
0.450000 4.789769e-04
0.451000 1.004598e-03
0.452000 1.481279e-03
0.453000 1.909881e-03
0.454000 2.291606e-03
0.455000 2.627957e-03
0.456000 2.920695e-03
0.457000 3.171798e-03
0.458000 3.383420e-03
0.459000 3.557856e-03
0.460000 3.697501e-03
0.461000 3.804816e-03
0.462000 3.882299e-03
0.463000 3.932451e-03
0.464000 3.957755e-03
0.465000 3.960646e-03
0.466000 3.943497e-03
0.467000 3.908595e-03
0.468000 3.858132e-03
0.469000 3.794188e-03
0.470000 3.718725e-03
0.471000 3.633581e-03
0.472000 3.540460e-03
0.473000 3.440935e-03
0.474000 3.336448e-03
0.475000 3.228304e-03
0.476000 3.117682e-03
0.477000 3.005636e-03
0.478000 2.893095e-03
0.479000 2.780878e-03
0.480000 2.669691e-03
0.481000 2.560142e-03
0.482000 2.452742e-03
0.483000 2.347916e-03
0.484000 2.246008e-03
0.485000 2.147291e-03
0.486000 2.051974e-03
0.487000 1.960205e-03
0.488000 1.872083e-03
0.489000 1.787662e-03
0.490000 1.706956e-03
0.491000 1.629945e-03
0.492000 1.556584e-03
0.493000 1.486802e-03
0.494000 1.420508e-03
0.495000 1.357598e-03
0.496000 1.297956e-03
0.497000 1.241455e-03
0.498000 1.187963e-03
0.499000 1.137346e-03
0.500000 1.089465e-03
0.501000 1.044183e-03
0.502000 1.001364e-03
0.503000 9.608727e-04
0.504000 9.225799e-04
0.505000 8.863588e-04
0.506000 8.520875e-04
0.507000 8.196493e-04
0.508000 7.889329e-04
0.509000 7.598326e-04
0.510000 7.322480e-04
0.511000 7.060847e-04
0.512000 6.812536e-04
0.513000 6.576709e-04
0.514000 6.352584e-04
0.515000 6.139426e-04
0.516000 5.936550e-04
0.517000 5.743316e-04
0.518000 5.559128e-04
0.519000 5.383432e-04
0.520000 5.215711e-04
0.521000 5.055485e-04
0.522000 4.902309e-04
0.523000 4.755766e-04
0.524000 4.615471e-04
0.525000 4.481066e-04
0.526000 4.352218e-04
0.527000 4.228617e-04
0.528000 4.109973e-04
0.529000 3.996019e-04
0.530000 3.886505e-04
0.531000 3.781196e-04
0.532000 3.679876e-04
0.533000 3.582342e-04
0.534000 3.488402e-04
0.535000 3.397880e-04
0.536000 3.310609e-04
0.537000 3.226433e-04
0.538000 3.145207e-04
0.539000 3.066792e-04
0.540000 2.991059e-04
0.541000 2.917888e-04
0.542000 2.847163e-04
0.543000 2.778777e-04
0.544000 2.712628e-04
0.545000 2.648621e-04
0.546000 2.586664e-04
0.547000 2.526671e-04
0.548000 2.468562e-04
0.549000 2.412259e-04
0.550000 2.357690e-04
0.551000 2.304785e-04
0.552000 2.253478e-04
0.553000 2.203707e-04
0.554000 2.155413e-04
0.555000 2.108539e-04
0.556000 2.063031e-04
0.557000 2.018839e-04
0.558000 1.975913e-04
0.559000 1.934206e-04
0.560000 1.893675e-04
0.561000 1.854277e-04
0.562000 1.815971e-04
0.563000 1.778719e-04
0.564000 1.742483e-04
0.565000 1.707229e-04
0.566000 1.672922e-04
0.567000 1.639531e-04
0.568000 1.607023e-04
0.569000 1.575370e-04
0.570000 1.544542e-04
0.571000 1.514513e-04
0.572000 1.485256e-04
0.573000 1.456746e-04
0.574000 1.428959e-04
0.575000 1.401871e-04
0.576000 1.375461e-04
0.577000 1.349707e-04
0.578000 1.324588e-04
0.579000 1.300085e-04
0.580000 1.276178e-04
0.581000 1.252850e-04
0.582000 1.230082e-04
0.583000 1.207858e-04
0.584000 1.186161e-04
0.585000 1.164975e-04
0.586000 1.144286e-04
0.587000 1.124079e-04
0.588000 1.104339e-04
0.589000 1.085054e-04
0.590000 1.066209e-04
0.591000 1.047792e-04
0.592000 1.029792e-04
0.593000 1.012196e-04
0.594000 9.949928e-05
0.595000 9.781715e-05
0.596000 9.617215e-05
0.597000 9.456325e-05
0.598000 9.298946e-05
0.599000 9.144982e-05
0.600000 8.994341e-05
0.601000 8.846933e-05
0.602000 8.702671e-05
0.603000 8.561472e-05
0.604000 8.423253e-05
0.605000 8.287937e-05
0.606000 8.155448e-05
0.607000 8.025711e-05
0.608000 7.898656e-05
0.609000 7.774213e-05
0.610000 7.652316e-05
0.611000 7.532900e-05
0.612000 7.415901e-05
0.613000 7.301259e-05
0.614000 7.188914e-05
0.615000 7.078810e-05
0.616000 6.970891e-05
0.617000 6.865103e-05
0.618000 6.761393e-05
0.619000 6.659711e-05
0.620000 6.560008e-05
0.621000 6.462235e-05
0.622000 6.366347e-05
0.623000 6.272298e-05
0.624000 6.180044e-05
0.625000 6.089544e-05
0.626000 6.000755e-05
0.627000 5.913637e-05
0.628000 5.828151e-05
0.629000 5.744261e-05
0.630000 5.661927e-05
0.631000 5.581116e-05
0.632000 5.501792e-05
0.633000 5.423920e-05
0.634000 5.347469e-05
0.635000 5.272406e-05
0.636000 5.198700e-05
0.637000 5.126320e-05
0.638000 5.055237e-05
0.639000 4.985423e-05
0.640000 4.916848e-05
0.641000 4.849487e-05
0.642000 4.783312e-05
0.643000 4.718299e-05
0.644000 4.654420e-05
0.645000 4.591653e-05
0.646000 4.529973e-05
0.647000 4.469357e-05
0.648000 4.409782e-05
0.649000 4.351226e-05
0.650000 4.293668e-05
0.651000 4.237087e-05
0.652000 4.181462e-05
0.653000 4.126773e-05
0.654000 4.073002e-05
0.655000 4.020128e-05
0.656000 3.968134e-05
0.657000 3.917001e-05
0.658000 3.866713e-05
0.659000 3.817251e-05
0.660000 3.768599e-05
0.661000 3.720740e-05
0.662000 3.673660e-05
0.663000 3.627342e-05
0.664000 3.581770e-05
0.665000 3.536931e-05
0.666000 3.492810e-05
0.667000 3.449392e-05
0.668000 3.406664e-05
0.669000 3.364612e-05
0.670000 3.323224e-05
0.671000 3.282485e-05
0.672000 3.242385e-05
0.673000 3.202910e-05
0.674000 3.164048e-05
0.675000 3.125789e-05
0.676000 3.088119e-05
0.677000 3.051029e-05
0.678000 3.014507e-05
0.679000 2.978543e-05
0.680000 2.943125e-05
0.681000 2.908245e-05
0.682000 2.873891e-05
0.683000 2.840055e-05
0.684000 2.806726e-05
0.685000 2.773896e-05
0.686000 2.741555e-05
0.687000 2.709694e-05
0.688000 2.678304e-05
0.689000 2.647377e-05
0.690000 2.616905e-05
0.691000 2.586879e-05
0.692000 2.557292e-05
0.693000 2.528135e-05
0.694000 2.499401e-05
0.695000 2.471082e-05
0.696000 2.443171e-05
0.697000 2.415661e-05
0.698000 2.388545e-05
0.699000 2.361816e-05
0.700000 2.335466e-05
0.701000 2.309491e-05
0.702000 2.283882e-05
0.703000 2.258634e-05
0.704000 2.233740e-05
0.705000 2.209195e-05
0.706000 2.184992e-05
0.707000 2.161126e-05
0.708000 2.137591e-05
0.709000 2.114381e-05
0.710000 2.091490e-05
0.711000 2.068915e-05
0.712000 2.046648e-05
0.713000 2.024685e-05
0.714000 2.003021e-05
0.715000 1.981651e-05
0.716000 1.960570e-05
0.717000 1.939773e-05
0.718000 1.919256e-05
0.719000 1.899014e-05
0.720000 1.879042e-05
0.721000 1.859336e-05
0.722000 1.839893e-05
0.723000 1.820706e-05
0.724000 1.801773e-05
0.725000 1.783090e-05
0.726000 1.764651e-05
0.727000 1.746454e-05
0.728000 1.728495e-05
0.729000 1.710769e-05
0.730000 1.693274e-05
0.731000 1.676004e-05
0.732000 1.658958e-05
0.733000 1.642131e-05
0.734000 1.625519e-05
0.735000 1.609120e-05
0.736000 1.592931e-05
0.737000 1.576947e-05
0.738000 1.561166e-05
0.739000 1.545585e-05
0.740000 1.530200e-05
0.741000 1.515009e-05
0.742000 1.500008e-05
0.743000 1.485195e-05
0.744000 1.470567e-05
0.745000 1.456121e-05
0.746000 1.441854e-05
0.747000 1.427763e-05
0.748000 1.413847e-05
0.749000 1.400102e-05
0.750000 1.386525e-05
0.751000 1.373115e-05
0.752000 1.359868e-05
0.753000 1.346782e-05
0.754000 1.333856e-05
0.755000 1.321086e-05
0.756000 1.308470e-05
0.757000 1.296007e-05
0.758000 1.283693e-05
0.759000 1.271526e-05
0.760000 1.259505e-05
0.761000 1.247627e-05
0.762000 1.235891e-05
0.763000 1.224294e-05
0.764000 1.212834e-05
0.765000 1.201509e-05
0.766000 1.190317e-05
0.767000 1.179257e-05
0.768000 1.168327e-05
0.769000 1.157524e-05
0.770000 1.146846e-05
0.771000 1.136293e-05
0.772000 1.125863e-05
0.773000 1.115552e-05
0.774000 1.105361e-05
0.775000 1.095287e-05
0.776000 1.085329e-05
0.777000 1.075485e-05
0.778000 1.065753e-05
0.779000 1.056131e-05
0.780000 1.046620e-05
0.781000 1.037216e-05
0.782000 1.027918e-05
0.783000 1.018725e-05
0.784000 1.009636e-05
0.785000 1.000649e-05
0.786000 9.917624e-06
0.787000 9.829751e-06
0.788000 9.742858e-06
0.789000 9.656930e-06
0.790000 9.571956e-06
0.791000 9.487922e-06
0.792000 9.404816e-06
0.793000 9.322625e-06
0.794000 9.241337e-06
0.795000 9.160940e-06
0.796000 9.081423e-06
0.797000 9.002773e-06
0.798000 8.924979e-06
0.799000 8.848030e-06
0.800000 8.771914e-06
0.801000 8.696622e-06
0.802000 8.622141e-06
0.803000 8.548462e-06
0.804000 8.475574e-06
0.805000 8.403466e-06
0.806000 8.332129e-06
0.807000 8.261553e-06
0.808000 8.191727e-06
0.809000 8.122643e-06
0.810000 8.054290e-06
0.811000 7.986659e-06
0.812000 7.919741e-06
0.813000 7.853528e-06
0.814000 7.788009e-06
0.815000 7.723176e-06
0.816000 7.659020e-06
0.817000 7.595534e-06
0.818000 7.532708e-06
0.819000 7.470533e-06
0.820000 7.409003e-06
0.821000 7.348109e-06
0.822000 7.287842e-06
0.823000 7.228196e-06
0.824000 7.169162e-06
0.825000 7.110732e-06
0.826000 7.052900e-06
0.827000 6.995658e-06
0.828000 6.938998e-06
0.829000 6.882914e-06
0.830000 6.827398e-06
0.831000 6.772444e-06
0.832000 6.718044e-06
0.833000 6.664191e-06
0.834000 6.610880e-06
0.835000 6.558104e-06
0.836000 6.505855e-06
0.837000 6.454128e-06
0.838000 6.402917e-06
0.839000 6.352214e-06
0.840000 6.302015e-06
0.841000 6.252312e-06
0.842000 6.203101e-06
0.843000 6.154375e-06
0.844000 6.106128e-06
0.845000 6.058355e-06
0.846000 6.011050e-06
0.847000 5.964208e-06
0.848000 5.917822e-06
0.849000 5.871889e-06
0.850000 5.826401e-06
0.851000 5.781355e-06
0.852000 5.736745e-06
0.853000 5.692566e-06
0.854000 5.648812e-06
0.855000 5.605480e-06
0.856000 5.562563e-06
0.857000 5.520058e-06
0.858000 5.477959e-06
0.859000 5.436261e-06
0.860000 5.394961e-06
0.861000 5.354053e-06
0.862000 5.313534e-06
0.863000 5.273398e-06
0.864000 5.233641e-06
0.865000 5.194258e-06
0.866000 5.155247e-06
0.867000 5.116602e-06
0.868000 5.078319e-06
0.869000 5.040394e-06
0.870000 5.002823e-06
0.871000 4.965602e-06
0.872000 4.928728e-06
0.873000 4.892196e-06
0.874000 4.856002e-06
0.875000 4.820142e-06
0.876000 4.784614e-06
0.877000 4.749413e-06
0.878000 4.714535e-06
0.879000 4.679977e-06
0.880000 4.645736e-06
0.881000 4.611808e-06
0.882000 4.578189e-06
0.883000 4.544876e-06
0.884000 4.511866e-06
0.885000 4.479155e-06
0.886000 4.446741e-06
0.887000 4.414619e-06
0.888000 4.382787e-06
0.889000 4.351242e-06
0.890000 4.319979e-06
0.891000 4.288998e-06
0.892000 4.258293e-06
0.893000 4.227863e-06
0.894000 4.197704e-06
0.895000 4.167813e-06
0.896000 4.138188e-06
0.897000 4.108826e-06
0.898000 4.079724e-06
0.899000 4.050878e-06
0.900000 4.022287e-06
0.901000 3.993948e-06
0.902000 3.965858e-06
0.903000 3.938014e-06
0.904000 3.910414e-06
0.905000 3.883054e-06
0.906000 3.855934e-06
0.907000 3.829049e-06
0.908000 3.802398e-06
0.909000 3.775979e-06
0.910000 3.749788e-06
0.911000 3.723823e-06
0.912000 3.698083e-06
0.913000 3.672564e-06
0.914000 3.647264e-06
0.915000 3.622181e-06
0.916000 3.597314e-06
0.917000 3.572658e-06
0.918000 3.548214e-06
0.919000 3.523977e-06
0.920000 3.499947e-06
0.921000 3.476120e-06
0.922000 3.452496e-06
0.923000 3.429071e-06
0.924000 3.405844e-06
0.925000 3.382813e-06
0.926000 3.359975e-06
0.927000 3.337330e-06
0.928000 3.314874e-06
0.929000 3.292606e-06
0.930000 3.270524e-06
0.931000 3.248627e-06
0.932000 3.226912e-06
0.933000 3.205377e-06
0.934000 3.184021e-06
0.935000 3.162841e-06
0.936000 3.141837e-06
0.937000 3.121006e-06
0.938000 3.100347e-06
0.939000 3.079858e-06
0.940000 3.059537e-06
0.941000 3.039383e-06
0.942000 3.019393e-06
0.943000 2.999567e-06
0.944000 2.979902e-06
0.945000 2.960398e-06
0.946000 2.941052e-06
0.947000 2.921863e-06
0.948000 2.902830e-06
0.949000 2.883950e-06
0.950000 2.865223e-06
0.951000 2.846647e-06
0.952000 2.828220e-06
0.953000 2.809941e-06
0.954000 2.791809e-06
0.955000 2.773822e-06
0.956000 2.755978e-06
0.957000 2.738277e-06
0.958000 2.720717e-06
0.959000 2.703297e-06
0.960000 2.686015e-06
0.961000 2.668870e-06
0.962000 2.651860e-06
0.963000 2.634985e-06
0.964000 2.618243e-06
0.965000 2.601633e-06
0.966000 2.585153e-06
0.967000 2.568803e-06
0.968000 2.552581e-06
0.969000 2.536485e-06
0.970000 2.520516e-06
0.971000 2.504670e-06
0.972000 2.488949e-06
0.973000 2.473349e-06
0.974000 2.457870e-06
0.975000 2.442512e-06
0.976000 2.427272e-06
0.977000 2.412149e-06
0.978000 2.397144e-06
0.979000 2.382254e-06
0.980000 2.367478e-06
0.981000 2.352815e-06
0.982000 2.338265e-06
0.983000 2.323826e-06
0.984000 2.309498e-06
0.985000 2.295278e-06
0.986000 2.281167e-06
0.987000 2.267163e-06
0.988000 2.253266e-06
0.989000 2.239473e-06
0.990000 2.225785e-06
0.991000 2.212201e-06
0.992000 2.198718e-06
0.993000 2.185338e-06
0.994000 2.172057e-06
0.995000 2.158877e-06
0.996000 2.145795e-06
0.997000 2.132811e-06
0.998000 2.119924e-06
0.999000 2.107133e-06
1.000000 2.094438e-06
1.001000 2.081837e-06
1.002000 2.069329e-06
1.003000 2.056914e-06
1.004000 2.044591e-06
1.005000 2.032359e-06
1.006000 2.020217e-06
1.007000 2.008165e-06
1.008000 1.996202e-06
1.009000 1.984326e-06
1.010000 1.972537e-06
1.011000 1.960835e-06
1.012000 1.949218e-06
1.013000 1.937686e-06
1.014000 1.926238e-06
1.015000 1.914874e-06
1.016000 1.903592e-06
1.017000 1.892392e-06
1.018000 1.881273e-06
1.019000 1.870235e-06
1.020000 1.859276e-06
1.021000 1.848396e-06
1.022000 1.837595e-06
1.023000 1.826872e-06
1.024000 1.816225e-06
1.025000 1.805655e-06
1.026000 1.795161e-06
1.027000 1.784741e-06
1.028000 1.774396e-06
1.029000 1.764125e-06
1.030000 1.753927e-06
1.031000 1.743801e-06
1.032000 1.733748e-06
1.033000 1.723765e-06
1.034000 1.713854e-06
1.035000 1.704012e-06
1.036000 1.694240e-06
1.037000 1.684537e-06
1.038000 1.674902e-06
1.039000 1.665334e-06
1.040000 1.655834e-06
1.041000 1.646401e-06
1.042000 1.637033e-06
1.043000 1.627731e-06
1.044000 1.618494e-06
1.045000 1.609321e-06
1.046000 1.600212e-06
1.047000 1.591167e-06
1.048000 1.582184e-06
1.049000 1.573264e-06
1.050000 1.564405e-06
1.051000 1.555607e-06
1.052000 1.546871e-06
1.053000 1.538194e-06
1.054000 1.529577e-06
1.055000 1.521020e-06
1.056000 1.512521e-06
1.057000 1.504080e-06
1.058000 1.495697e-06
1.059000 1.487372e-06
1.060000 1.479103e-06
1.061000 1.470891e-06
1.062000 1.462734e-06
1.063000 1.454634e-06
1.064000 1.446588e-06
1.065000 1.438596e-06
1.066000 1.430659e-06
1.067000 1.422776e-06
1.068000 1.414946e-06
1.069000 1.407168e-06
1.070000 1.399443e-06
1.071000 1.391770e-06
1.072000 1.384149e-06
1.073000 1.376578e-06
1.074000 1.369059e-06
1.075000 1.361590e-06
1.076000 1.354170e-06
1.077000 1.346801e-06
1.078000 1.339480e-06
1.079000 1.332208e-06
