-0.138818 3.075255e-05
-0.138568 3.188771e-05
-0.138318 3.300974e-05
-0.138068 3.411823e-05
-0.137818 3.521273e-05
-0.137568 3.629283e-05
-0.137318 3.735811e-05
-0.137068 3.840817e-05
-0.136818 3.944260e-05
-0.136568 4.046101e-05
-0.136318 4.146300e-05
-0.136068 4.244819e-05
-0.135818 4.341621e-05
-0.135568 4.436669e-05
-0.135318 4.529926e-05
-0.135068 4.621358e-05
-0.134818 4.710929e-05
-0.134568 4.798605e-05
-0.134318 4.884353e-05
-0.134068 4.968142e-05
-0.133818 5.049938e-05
-0.133568 5.129712e-05
-0.133318 5.207434e-05
-0.133068 5.283074e-05
-0.132818 5.356604e-05
-0.132568 5.427996e-05
-0.132318 5.497225e-05
-0.132068 5.564264e-05
-0.131818 5.629088e-05
-0.131568 5.691673e-05
-0.131318 5.751997e-05
-0.131068 5.810037e-05
-0.130818 5.865773e-05
-0.130568 5.919182e-05
-0.130318 5.970247e-05
-0.130068 6.018949e-05
-0.129818 6.065270e-05
-0.129568 6.109194e-05
-0.129318 6.150705e-05
-0.129068 6.189789e-05
-0.128818 6.226431e-05
-0.128568 6.260619e-05
-0.128318 6.292342e-05
-0.128068 6.321588e-05
-0.127818 6.348347e-05
-0.127568 6.372612e-05
-0.127318 6.394373e-05
-0.127068 6.413625e-05
-0.126818 6.430362e-05
-0.126568 6.444577e-05
-0.126318 6.456269e-05
-0.126068 6.465433e-05
-0.125818 6.472068e-05
-0.125568 6.476172e-05
-0.125318 6.477747e-05
-0.125068 6.476794e-05
-0.124818 6.473313e-05
-0.124568 6.467309e-05
-0.124318 6.458785e-05
-0.124068 6.447746e-05
-0.123818 6.434199e-05
-0.123568 6.418150e-05
-0.123318 6.399607e-05
-0.123068 6.378580e-05
-0.122818 6.355078e-05
-0.122568 6.329112e-05
-0.122318 6.300694e-05
-0.122068 6.269836e-05
-0.121818 6.236553e-05
-0.121568 6.200859e-05
-0.121318 6.162769e-05
-0.121068 6.122301e-05
-0.120818 6.079471e-05
-0.120568 6.034298e-05
-0.120318 5.986801e-05
-0.120068 5.937000e-05
-0.119818 5.884916e-05
-0.119568 5.830572e-05
-0.119318 5.773989e-05
-0.119068 5.715192e-05
-0.118818 5.654205e-05
-0.118568 5.591053e-05
-0.118318 5.525762e-05
-0.118068 5.458360e-05
-0.117818 5.388874e-05
-0.117568 5.317332e-05
-0.117318 5.243764e-05
-0.117068 5.168200e-05
-0.116818 5.090671e-05
-0.116568 5.011209e-05
-0.116318 4.929845e-05
-0.116068 4.846612e-05
-0.115818 4.761545e-05
-0.115568 4.674678e-05
-0.115318 4.586046e-05
-0.115068 4.495685e-05
-0.114818 4.403631e-05
-0.114568 4.309921e-05
-0.114318 4.214592e-05
-0.114068 4.117684e-05
-0.113818 4.019234e-05
-0.113568 3.919283e-05
-0.113318 3.817870e-05
-0.113068 3.715036e-05
-0.112818 3.610821e-05
-0.112568 3.505268e-05
-0.112318 3.398418e-05
-0.112068 3.290314e-05
-0.111818 3.180999e-05
-0.111568 3.070515e-05
-0.111318 2.958908e-05
-0.111068 2.846220e-05
-0.110818 2.732498e-05
-0.110568 2.617784e-05
-0.110318 2.502126e-05
-0.110068 2.385569e-05
-0.109818 2.268157e-05
-0.109568 2.149939e-05
-0.109318 2.030960e-05
-0.109068 1.911267e-05
-0.108818 1.790907e-05
-0.108568 1.669927e-05
-0.108318 1.548375e-05
-0.108068 1.426299e-05
-0.107818 1.303745e-05
-0.107568 1.180763e-05
-0.107318 1.057400e-05
-0.107068 9.337046e-06
-0.106818 8.097247e-06
-0.106568 6.855087e-06
-0.106318 5.611051e-06
-0.106068 4.365623e-06
-0.105818 3.119288e-06
-0.105568 1.872529e-06
-0.105318 6.258318e-07
-0.105068 -6.203207e-07
-0.104818 -1.865445e-06
-0.104568 -3.109060e-06
-0.104318 -4.350682e-06
-0.104068 -5.589833e-06
-0.103818 -6.826033e-06
-0.103568 -8.058805e-06
-0.103318 -9.287674e-06
-0.103068 -1.051216e-05
-0.102818 -1.173181e-05
-0.102568 -1.294613e-05
-0.102318 -1.415467e-05
-0.102068 -1.535696e-05
-0.101818 -1.655254e-05
-0.101568 -1.774095e-05
-0.101318 -1.892173e-05
-0.101068 -2.009444e-05
-0.100818 -2.125863e-05
-0.100568 -2.241384e-05
-0.100318 -2.355964e-05
-0.100068 -2.469560e-05
-0.099818 -2.582128e-05
-0.099568 -2.693624e-05
-0.099318 -2.804008e-05
-0.099068 -2.913236e-05
-0.098818 -3.021267e-05
-0.098568 -3.128062e-05
-0.098318 -3.233578e-05
-0.098068 -3.337776e-05
-0.097818 -3.440617e-05
-0.097568 -3.542062e-05
-0.097318 -3.642072e-05
-0.097068 -3.740611e-05
-0.096818 -3.837641e-05
-0.096568 -3.933125e-05
-0.096318 -4.027029e-05
-0.096068 -4.119316e-05
-0.095818 -4.209952e-05
-0.095568 -4.298904e-05
-0.095318 -4.386138e-05
-0.095068 -4.471621e-05
-0.094818 -4.555323e-05
-0.094568 -4.637212e-05
-0.094318 -4.717258e-05
-0.094068 -4.795431e-05
-0.093818 -4.871702e-05
-0.093568 -4.946044e-05
-0.093318 -5.018428e-05
-0.093068 -5.088829e-05
-0.092818 -5.157221e-05
-0.092568 -5.223579e-05
-0.092318 -5.287879e-05
-0.092068 -5.350098e-05
-0.091818 -5.410212e-05
-0.091568 -5.468201e-05
-0.091318 -5.524044e-05
-0.091068 -5.577720e-05
-0.090818 -5.629211e-05
-0.090568 -5.678499e-05
-0.090318 -5.725565e-05
-0.090068 -5.770395e-05
-0.089818 -5.812971e-05
-0.089568 -5.853279e-05
-0.089318 -5.891306e-05
-0.089068 -5.927039e-05
-0.088818 -5.960465e-05
-0.088568 -5.991573e-05
-0.088318 -6.020354e-05
-0.088068 -6.046797e-05
-0.087818 -6.070895e-05
-0.087568 -6.092639e-05
-0.087318 -6.112024e-05
-0.087068 -6.129044e-05
-0.086818 -6.143693e-05
-0.086568 -6.155969e-05
-0.086318 -6.165867e-05
-0.086068 -6.173387e-05
-0.085818 -6.178527e-05
-0.085568 -6.181287e-05
-0.085318 -6.181668e-05
-0.085068 -6.179671e-05
-0.084818 -6.175299e-05
-0.084568 -6.168556e-05
-0.084318 -6.159446e-05
-0.084068 -6.147974e-05
-0.083818 -6.134147e-05
-0.083568 -6.117972e-05
-0.083318 -6.099456e-05
-0.083068 -6.078609e-05
-0.082818 -6.055441e-05
-0.082568 -6.029962e-05
-0.082318 -6.002184e-05
-0.082068 -5.972120e-05
-0.081818 -5.939782e-05
-0.081568 -5.905186e-05
-0.081318 -5.868345e-05
-0.081068 -5.829277e-05
-0.080818 -5.787997e-05
-0.080568 -5.744524e-05
-0.080318 -5.698876e-05
-0.080068 -5.651072e-05
-0.079818 -5.601132e-05
-0.079568 -5.549078e-05
-0.079318 -5.494930e-05
-0.079068 -5.438712e-05
-0.078818 -5.380446e-05
-0.078568 -5.320157e-05
-0.078318 -5.257869e-05
-0.078068 -5.193608e-05
-0.077818 -5.127400e-05
-0.077568 -5.059273e-05
-0.077318 -4.989253e-05
-0.077068 -4.917370e-05
-0.076818 -4.843652e-05
-0.076568 -4.768130e-05
-0.076318 -4.690833e-05
-0.076068 -4.611793e-05
-0.075818 -4.531041e-05
-0.075568 -4.448611e-05
-0.075318 -4.364534e-05
-0.075068 -4.278845e-05
-0.074818 -4.191578e-05
-0.074568 -4.102767e-05
-0.074318 -4.012448e-05
-0.074068 -3.920658e-05
-0.073818 -3.827431e-05
-0.073568 -3.732805e-05
-0.073318 -3.636818e-05
-0.073068 -3.539508e-05
-0.072818 -3.440913e-05
-0.072568 -3.341071e-05
-0.072318 -3.240023e-05
-0.072068 -3.137808e-05
-0.071818 -3.034466e-05
-0.071568 -2.930038e-05
-0.071318 -2.824564e-05
-0.071068 -2.718086e-05
-0.070818 -2.610646e-05
-0.070568 -2.502286e-05
-0.070318 -2.393048e-05
-0.070068 -2.282974e-05
-0.069818 -2.172107e-05
-0.069568 -2.060492e-05
-0.069318 -1.948170e-05
-0.069068 -1.835186e-05
-0.068818 -1.721584e-05
-0.068568 -1.607407e-05
-0.068318 -1.492700e-05
-0.068068 -1.377508e-05
-0.067818 -1.261874e-05
-0.067568 -1.145844e-05
-0.067318 -1.029462e-05
-0.067068 -9.127729e-06
-0.066818 -7.958224e-06
-0.066568 -6.786550e-06
-0.066318 -5.613159e-06
-0.066068 -4.438502e-06
-0.065818 -3.263029e-06
-0.065568 -2.087193e-06
-0.065318 -9.114426e-07
-0.065068 2.637709e-07
-0.064818 1.437998e-06
-0.064568 2.610790e-06
-0.064318 3.781698e-06
-0.064068 4.950277e-06
-0.063818 6.116080e-06
-0.063568 7.278664e-06
-0.063318 8.437585e-06
-0.063068 9.592404e-06
-0.062818 1.074268e-05
-0.062568 1.188798e-05
-0.062318 1.302787e-05
-0.062068 1.416192e-05
-0.061818 1.528969e-05
-0.061568 1.641076e-05
-0.061318 1.752471e-05
-0.061068 1.863112e-05
-0.060818 1.972957e-05
-0.060568 2.081964e-05
-0.060318 2.190093e-05
-0.060068 2.297304e-05
-0.059818 2.403555e-05
-0.059568 2.508807e-05
-0.059318 2.613021e-05
-0.059068 2.716157e-05
-0.058818 2.818177e-05
-0.058568 2.919044e-05
-0.058318 3.018718e-05
-0.058068 3.117165e-05
-0.057818 3.214346e-05
-0.057568 3.310225e-05
-0.057318 3.404768e-05
-0.057068 3.497939e-05
-0.056818 3.589703e-05
-0.056568 3.680027e-05
-0.056318 3.768878e-05
-0.056068 3.856222e-05
-0.055818 3.942029e-05
-0.055568 4.026265e-05
-0.055318 4.108901e-05
-0.055068 4.189906e-05
-0.054818 4.269251e-05
-0.054568 4.346906e-05
-0.054318 4.422844e-05
-0.054068 4.497037e-05
-0.053818 4.569458e-05
-0.053568 4.640081e-05
-0.053318 4.708881e-05
-0.053068 4.775832e-05
-0.052818 4.840912e-05
-0.052568 4.904096e-05
-0.052318 4.965362e-05
-0.052068 5.024689e-05
-0.051818 5.082055e-05
-0.051568 5.137440e-05
-0.051318 5.190825e-05
-0.051068 5.242192e-05
-0.050818 5.291521e-05
-0.050568 5.338797e-05
-0.050318 5.384003e-05
-0.050068 5.427123e-05
-0.049818 5.468143e-05
-0.049568 5.507050e-05
-0.049318 5.543829e-05
-0.049068 5.578469e-05
-0.048818 5.610958e-05
-0.048568 5.641287e-05
-0.048318 5.669444e-05
-0.048068 5.695422e-05
-0.047818 5.719213e-05
-0.047568 5.740808e-05
-0.047318 5.760203e-05
-0.047068 5.777391e-05
-0.046818 5.792367e-05
-0.046568 5.805129e-05
-0.046318 5.815673e-05
-0.046068 5.823996e-05
-0.045818 5.830099e-05
-0.045568 5.833980e-05
-0.045318 5.835639e-05
-0.045068 5.835079e-05
-0.044818 5.832301e-05
-0.044568 5.827308e-05
-0.044318 5.820104e-05
-0.044068 5.810694e-05
-0.043818 5.799083e-05
-0.043568 5.785278e-05
-0.043318 5.769286e-05
-0.043068 5.751115e-05
-0.042818 5.730773e-05
-0.042568 5.708271e-05
-0.042318 5.683618e-05
-0.042068 5.656827e-05
-0.041818 5.627908e-05
-0.041568 5.596876e-05
-0.041318 5.563744e-05
-0.041068 5.528525e-05
-0.040818 5.491236e-05
-0.040568 5.451893e-05
-0.040318 5.410511e-05
-0.040068 5.367110e-05
-0.039818 5.321707e-05
-0.039568 5.274320e-05
-0.039318 5.224971e-05
-0.039068 5.173679e-05
-0.038818 5.120466e-05
-0.038568 5.065353e-05
-0.038318 5.008364e-05
-0.038068 4.949521e-05
-0.037818 4.888849e-05
-0.037568 4.826372e-05
-0.037318 4.762116e-05
-0.037068 4.696107e-05
-0.036818 4.628371e-05
-0.036568 4.558936e-05
-0.036318 4.487829e-05
-0.036068 4.415079e-05
-0.035818 4.340716e-05
-0.035568 4.264768e-05
-0.035318 4.187267e-05
-0.035068 4.108243e-05
-0.034818 4.027727e-05
-0.034568 3.945752e-05
-0.034318 3.862349e-05
-0.034068 3.777553e-05
-0.033818 3.691395e-05
-0.033568 3.603911e-05
-0.033318 3.515134e-05
-0.033068 3.425100e-05
-0.032818 3.333844e-05
-0.032568 3.241402e-05
-0.032318 3.147809e-05
-0.032068 3.053103e-05
-0.031818 2.957320e-05
-0.031568 2.860498e-05
-0.031318 2.762674e-05
-0.031068 2.663886e-05
-0.030818 2.564174e-05
-0.030568 2.463575e-05
-0.030318 2.362128e-05
-0.030068 2.259873e-05
-0.029818 2.156850e-05
-0.029568 2.053097e-05
-0.029318 1.948656e-05
-0.029068 1.843566e-05
-0.028818 1.737868e-05
-0.028568 1.631603e-05
-0.028318 1.524811e-05
-0.028068 1.417533e-05
-0.027818 1.309811e-05
-0.027568 1.201685e-05
-0.027318 1.093198e-05
-0.027068 9.843900e-06
-0.026818 8.753034e-06
-0.026568 7.659796e-06
-0.026318 6.564604e-06
-0.026068 5.467872e-06
-0.025818 4.370020e-06
-0.025568 3.271465e-06
-0.025318 2.172623e-06
-0.025068 1.073911e-06
-0.024818 -2.425438e-08
-0.024568 -1.121457e-06
-0.024318 -2.217282e-06
-0.024068 -3.311316e-06
-0.023818 -4.403145e-06
-0.023568 -5.492358e-06
-0.023318 -6.578545e-06
-0.023068 -7.661296e-06
-0.022818 -8.740204e-06
-0.022568 -9.814865e-06
-0.022318 -1.088488e-05
-0.022068 -1.194983e-05
-0.021818 -1.300934e-05
-0.021568 -1.406300e-05
-0.021318 -1.511042e-05
-0.021068 -1.615121e-05
-0.020818 -1.718498e-05
-0.020568 -1.821134e-05
-0.020318 -1.922992e-05
-0.020068 -2.024034e-05
-0.019818 -2.124221e-05
-0.019568 -2.223517e-05
-0.019318 -2.321886e-05
-0.019068 -2.419290e-05
-0.018818 -2.515694e-05
-0.018568 -2.611062e-05
-0.018318 -2.705359e-05
-0.018068 -2.798551e-05
-0.017818 -2.890603e-05
-0.017568 -2.981481e-05
-0.017318 -3.071153e-05
-0.017068 -3.159585e-05
-0.016818 -3.246744e-05
-0.016568 -3.332600e-05
-0.016318 -3.417121e-05
-0.016068 -3.500276e-05
-0.015818 -3.582036e-05
-0.015568 -3.662369e-05
-0.015318 -3.741249e-05
-0.015068 -3.818645e-05
-0.014818 -3.894530e-05
-0.014568 -3.968877e-05
-0.014318 -4.041659e-05
-0.014068 -4.112851e-05
-0.013818 -4.182426e-05
-0.013568 -4.250359e-05
-0.013318 -4.316628e-05
-0.013068 -4.381208e-05
-0.012818 -4.444077e-05
-0.012568 -4.505211e-05
-0.012318 -4.564591e-05
-0.012068 -4.622195e-05
-0.011818 -4.678003e-05
-0.011568 -4.731995e-05
-0.011318 -4.784153e-05
-0.011068 -4.834460e-05
-0.010818 -4.882897e-05
-0.010568 -4.929448e-05
-0.010318 -4.974098e-05
-0.010068 -5.016831e-05
-0.009818 -5.057633e-05
-0.009568 -5.096491e-05
-0.009318 -5.133391e-05
-0.009068 -5.168322e-05
-0.008818 -5.201272e-05
-0.008568 -5.232231e-05
-0.008318 -5.261189e-05
-0.008068 -5.288137e-05
-0.007818 -5.313066e-05
-0.007568 -5.335970e-05
-0.007318 -5.356841e-05
-0.007068 -5.375674e-05
-0.006818 -5.392463e-05
-0.006568 -5.407205e-05
-0.006318 -5.419894e-05
-0.006068 -5.430530e-05
-0.005818 -5.439109e-05
-0.005568 -5.445630e-05
-0.005318 -5.450094e-05
-0.005068 -5.452499e-05
-0.004818 -5.452848e-05
-0.004568 -5.451142e-05
-0.004318 -5.447383e-05
-0.004068 -5.441576e-05
-0.003818 -5.433724e-05
-0.003568 -5.423833e-05
-0.003318 -5.411907e-05
-0.003068 -5.397954e-05
-0.002818 -5.381981e-05
-0.002568 -5.363995e-05
-0.002318 -5.344005e-05
-0.002068 -5.322022e-05
-0.001818 -5.298055e-05
-0.001568 -5.272115e-05
-0.001318 -5.244214e-05
-0.001068 -5.214364e-05
-0.000818 -5.182578e-05
-0.000568 -5.148871e-05
-0.000318 -5.113256e-05
-0.000068 -5.075750e-05
0.000182 -5.036368e-05
0.000432 -4.995127e-05
0.000682 -4.952044e-05
0.000932 -4.907138e-05
0.001182 -4.860426e-05
0.001432 -4.811929e-05
0.001682 -4.761666e-05
0.001932 -4.709658e-05
0.002182 -4.655927e-05
0.002432 -4.600494e-05
0.002682 -4.543382e-05
0.002932 -4.484614e-05
0.003182 -4.424213e-05
0.003432 -4.362206e-05
0.003682 -4.298615e-05
0.003932 -4.233467e-05
0.004182 -4.166788e-05
0.004432 -4.098604e-05
0.004682 -4.028943e-05
0.004932 -3.957832e-05
0.005182 -3.885299e-05
0.005432 -3.811374e-05
0.005682 -3.736086e-05
0.005932 -3.659463e-05
0.006182 -3.581537e-05
0.006432 -3.502338e-05
0.006682 -3.421897e-05
0.006932 -3.340246e-05
0.007182 -3.257416e-05
0.007432 -3.173440e-05
0.007682 -3.088351e-05
0.007932 -3.002182e-05
0.008182 -2.914966e-05
0.008432 -2.826737e-05
0.008682 -2.737530e-05
0.008932 -2.647379e-05
0.009182 -2.556319e-05
0.009432 -2.464385e-05
0.009682 -2.371612e-05
0.009932 -2.278037e-05
0.010182 -2.183695e-05
0.010432 -2.088623e-05
0.010682 -1.992857e-05
0.010932 -1.896433e-05
0.011182 -1.799390e-05
0.011432 -1.701764e-05
0.011682 -1.603591e-05
0.011932 -1.504911e-05
0.012182 -1.405760e-05
0.012432 -1.306176e-05
0.012682 -1.206197e-05
0.012932 -1.105862e-05
0.013182 -1.005207e-05
0.013432 -9.042724e-06
0.013682 -8.030950e-06
0.013932 -7.017135e-06
0.014182 -6.001663e-06
0.014432 -4.984918e-06
0.014682 -3.967282e-06
0.014932 -2.949140e-06
0.015182 -1.930875e-06
0.015432 -9.128705e-07
0.015682 1.044916e-07
0.015932 1.120829e-06
0.016182 2.135761e-06
0.016432 3.148907e-06
0.016682 4.159888e-06
0.016932 5.168326e-06
0.017182 6.173845e-06
0.017432 7.176070e-06
0.017682 8.174626e-06
0.017932 9.169143e-06
0.018182 1.015925e-05
0.018432 1.114458e-05
0.018682 1.212477e-05
0.018932 1.309945e-05
0.019182 1.406827e-05
0.019432 1.503086e-05
0.019682 1.598687e-05
0.019932 1.693595e-05
0.020182 1.787775e-05
0.020432 1.881192e-05
0.020682 1.973812e-05
0.020932 2.065601e-05
0.021182 2.156525e-05
0.021432 2.246550e-05
0.021682 2.335645e-05
0.021932 2.423777e-05
0.022182 2.510912e-05
0.022432 2.597021e-05
0.022682 2.682071e-05
0.022932 2.766031e-05
0.023182 2.848872e-05
0.023432 2.930562e-05
0.023682 3.011073e-05
0.023932 3.090376e-05
0.024182 3.168442e-05
0.024432 3.245243e-05
0.024682 3.320752e-05
0.024932 3.394941e-05
0.025182 3.467784e-05
0.025432 3.539255e-05
0.025682 3.609328e-05
0.025932 3.677980e-05
0.026182 3.745184e-05
0.026432 3.810918e-05
0.026682 3.875159e-05
0.026932 3.937884e-05
0.027182 3.999071e-05
0.027432 4.058698e-05
0.027682 4.116745e-05
0.027932 4.173192e-05
0.028182 4.228019e-05
0.028432 4.281207e-05
0.028682 4.332738e-05
0.028932 4.382594e-05
0.029182 4.430758e-05
0.029432 4.477215e-05
0.029682 4.521948e-05
0.029932 4.564943e-05
0.030182 4.606184e-05
0.030432 4.645659e-05
0.030682 4.683354e-05
0.030932 4.719257e-05
0.031182 4.753357e-05
0.031432 4.785642e-05
0.031682 4.816103e-05
0.031932 4.844730e-05
0.032182 4.871513e-05
0.032432 4.896445e-05
0.032682 4.919519e-05
0.032932 4.940728e-05
0.033182 4.960065e-05
0.033432 4.977526e-05
0.033682 4.993105e-05
0.033932 5.006799e-05
0.034182 5.018606e-05
0.034432 5.028521e-05
0.034682 5.036544e-05
0.034932 5.042673e-05
0.035182 5.046909e-05
0.035432 5.049251e-05
0.035682 5.049701e-05
0.035932 5.048261e-05
0.036182 5.044932e-05
0.036432 5.039719e-05
0.036682 5.032625e-05
0.036932 5.023654e-05
0.037182 5.012813e-05
0.037432 5.000107e-05
0.037682 4.985543e-05
0.037932 4.969128e-05
0.038182 4.950870e-05
0.038432 4.930779e-05
0.038682 4.908863e-05
0.038932 4.885133e-05
0.039182 4.859599e-05
0.039432 4.832273e-05
0.039682 4.803168e-05
0.039932 4.772295e-05
0.040182 4.739668e-05
0.040432 4.705302e-05
0.040682 4.669211e-05
0.040932 4.631410e-05
0.041182 4.591916e-05
0.041432 4.550745e-05
0.041682 4.507913e-05
0.041932 4.463440e-05
0.042182 4.417343e-05
0.042432 4.369641e-05
0.042682 4.320354e-05
0.042932 4.269502e-05
0.043182 4.217106e-05
0.043432 4.163186e-05
0.043682 4.107765e-05
0.043932 4.050866e-05
0.044182 3.992510e-05
0.044432 3.932721e-05
0.044682 3.871524e-05
0.044932 3.808942e-05
0.045182 3.745001e-05
0.045432 3.679726e-05
0.045682 3.613142e-05
0.045932 3.545276e-05
0.046182 3.476155e-05
0.046432 3.405807e-05
0.046682 3.334257e-05
0.046932 3.261536e-05
0.047182 3.187670e-05
0.047432 3.112690e-05
0.047682 3.036624e-05
0.047932 2.959501e-05
0.048182 2.881353e-05
0.048432 2.802209e-05
0.048682 2.722099e-05
0.048932 2.641055e-05
0.049182 2.559109e-05
0.049432 2.476291e-05
0.049682 2.392634e-05
0.049932 2.308170e-05
0.050182 2.222931e-05
0.050432 2.136951e-05
0.050682 2.050261e-05
0.050932 1.962895e-05
0.051182 1.874888e-05
0.051432 1.786271e-05
0.051682 1.697079e-05
0.051932 1.607346e-05
0.052182 1.517107e-05
0.052432 1.426394e-05
0.052682 1.335244e-05
0.052932 1.243690e-05
0.053182 1.151767e-05
0.053432 1.059509e-05
0.053682 9.669526e-06
0.053932 8.741315e-06
0.054182 7.810810e-06
0.054432 6.878361e-06
0.054682 5.944319e-06
0.054932 5.009034e-06
0.055182 4.072858e-06
0.055432 3.136142e-06
0.055682 2.199236e-06
0.055932 1.262490e-06
0.056182 3.262548e-07
0.056432 -6.091203e-07
0.056682 -1.543287e-06
0.056932 -2.475897e-06
0.057182 -3.406603e-06
0.057432 -4.335061e-06
0.057682 -5.260924e-06
0.057932 -6.183851e-06
0.058182 -7.103500e-06
0.058432 -8.019529e-06
0.058682 -8.931602e-06
0.058932 -9.839381e-06
0.059182 -1.074253e-05
0.059432 -1.164072e-05
0.059682 -1.253362e-05
0.059932 -1.342090e-05
0.060182 -1.430224e-05
0.060432 -1.517731e-05
0.060682 -1.604579e-05
0.060932 -1.690737e-05
0.061182 -1.776173e-05
0.061432 -1.860856e-05
0.061682 -1.944755e-05
0.061932 -2.027840e-05
0.062182 -2.110081e-05
0.062432 -2.191447e-05
0.062682 -2.271910e-05
0.062932 -2.351440e-05
0.063182 -2.430008e-05
0.063432 -2.507587e-05
0.063682 -2.584148e-05
0.063932 -2.659664e-05
0.064182 -2.734107e-05
0.064432 -2.807452e-05
0.064682 -2.879672e-05
0.064932 -2.950742e-05
0.065182 -3.020635e-05
0.065432 -3.089327e-05
0.065682 -3.156794e-05
0.065932 -3.223013e-05
0.066182 -3.287959e-05
0.066432 -3.351609e-05
0.066682 -3.413942e-05
0.066932 -3.474936e-05
0.067182 -3.534569e-05
0.067432 -3.592820e-05
0.067682 -3.649670e-05
0.067932 -3.705098e-05
0.068182 -3.759086e-05
0.068432 -3.811615e-05
0.068682 -3.862666e-05
0.068932 -3.912223e-05
0.069182 -3.960269e-05
0.069432 -4.006787e-05
0.069682 -4.051761e-05
0.069932 -4.095177e-05
0.070182 -4.137020e-05
0.070432 -4.177276e-05
0.070682 -4.215932e-05
0.070932 -4.252975e-05
0.071182 -4.288394e-05
0.071432 -4.322176e-05
0.071682 -4.354311e-05
0.071932 -4.384789e-05
0.072182 -4.413599e-05
0.072432 -4.440735e-05
0.072682 -4.466186e-05
0.072932 -4.489945e-05
0.073182 -4.512006e-05
0.073432 -4.532362e-05
0.073682 -4.551007e-05
0.073932 -4.567936e-05
0.074182 -4.583145e-05
0.074432 -4.596629e-05
0.074682 -4.608387e-05
0.074932 -4.618415e-05
0.075182 -4.626712e-05
0.075432 -4.633276e-05
0.075682 -4.638106e-05
0.075932 -4.641204e-05
0.076182 -4.642569e-05
0.076432 -4.642204e-05
0.076682 -4.640109e-05
0.076932 -4.636288e-05
0.077182 -4.630745e-05
0.077432 -4.623482e-05
0.077682 -4.614505e-05
0.077932 -4.603819e-05
0.078182 -4.591430e-05
0.078432 -4.577345e-05
0.078682 -4.561569e-05
0.078932 -4.544112e-05
0.079182 -4.524982e-05
0.079432 -4.504187e-05
0.079682 -4.481737e-05
0.079932 -4.457642e-05
0.080182 -4.431914e-05
0.080432 -4.404563e-05
0.080682 -4.375602e-05
0.080932 -4.345043e-05
0.081182 -4.312899e-05
0.081432 -4.279184e-05
0.081682 -4.243913e-05
0.081932 -4.207099e-05
0.082182 -4.168760e-05
0.082432 -4.128909e-05
0.082682 -4.087565e-05
0.082932 -4.044745e-05
0.083182 -4.000465e-05
0.083432 -3.954744e-05
0.083682 -3.907600e-05
0.083932 -3.859053e-05
0.084182 -3.809123e-05
0.084432 -3.757829e-05
0.084682 -3.705192e-05
0.084932 -3.651233e-05
0.085182 -3.595974e-05
0.085432 -3.539437e-05
0.085682 -3.481644e-05
0.085932 -3.422619e-05
0.086182 -3.362384e-05
0.086432 -3.300963e-05
0.086682 -3.238381e-05
0.086932 -3.174663e-05
0.087182 -3.109832e-05
0.087432 -3.043915e-05
0.087682 -2.976937e-05
0.087932 -2.908925e-05
0.088182 -2.839905e-05
0.088432 -2.769904e-05
0.088682 -2.698948e-05
0.088932 -2.627066e-05
0.089182 -2.554285e-05
0.089432 -2.480634e-05
0.089682 -2.406140e-05
0.089932 -2.330833e-05
0.090182 -2.254741e-05
0.090432 -2.177894e-05
0.090682 -2.100321e-05
0.090932 -2.022051e-05
0.091182 -1.943115e-05
0.091432 -1.863543e-05
0.091682 -1.783366e-05
0.091932 -1.702613e-05
0.092182 -1.621315e-05
0.092432 -1.539503e-05
0.092682 -1.457209e-05
0.092932 -1.374463e-05
0.093182 -1.291298e-05
0.093432 -1.207743e-05
0.093682 -1.123831e-05
0.093932 -1.039593e-05
0.094182 -9.550619e-06
0.094432 -8.702684e-06
0.094682 -7.852446e-06
0.094932 -7.000225e-06
0.095182 -6.146340e-06
0.095432 -5.291111e-06
0.095682 -4.434858e-06
0.095932 -3.577900e-06
0.096182 -2.720557e-06
0.096432 -1.863148e-06
0.096682 -1.005994e-06
0.096932 -1.494122e-07
0.097182 7.062790e-07
0.097432 1.560762e-06
0.097682 2.413721e-06
0.097932 3.264839e-06
0.098182 4.113802e-06
0.098432 4.960296e-06
0.098682 5.804010e-06
0.098932 6.644633e-06
0.099182 7.481854e-06
0.099432 8.315368e-06
0.099682 9.144867e-06
0.099932 9.970047e-06
0.100182 1.079061e-05
0.100432 1.160625e-05
0.100682 1.241667e-05
0.100932 1.322157e-05
0.101182 1.402067e-05
0.101432 1.481367e-05
0.101682 1.560029e-05
0.101932 1.638023e-05
0.102182 1.715322e-05
0.102432 1.791897e-05
0.102682 1.867722e-05
0.102932 1.942768e-05
0.103182 2.017008e-05
0.103432 2.090417e-05
0.103682 2.162967e-05
0.103932 2.234632e-05
0.104182 2.305387e-05
0.104432 2.375207e-05
0.104682 2.444066e-05
0.104932 2.511941e-05
0.105182 2.578806e-05
0.105432 2.644639e-05
0.105682 2.709415e-05
0.105932 2.773113e-05
0.106182 2.835709e-05
0.106432 2.897182e-05
0.106682 2.957509e-05
0.106932 3.016671e-05
0.107182 3.074645e-05
0.107432 3.131413e-05
0.107682 3.186953e-05
0.107932 3.241248e-05
0.108182 3.294278e-05
0.108432 3.346024e-05
0.108682 3.396470e-05
0.108932 3.445598e-05
0.109182 3.493390e-05
0.109432 3.539831e-05
0.109682 3.584906e-05
0.109932 3.628598e-05
0.110182 3.670893e-05
0.110432 3.711777e-05
0.110682 3.751237e-05
0.110932 3.789259e-05
0.111182 3.825831e-05
0.111432 3.860941e-05
0.111682 3.894577e-05
0.111932 3.926729e-05
0.112182 3.957386e-05
0.112432 3.986540e-05
0.112682 4.014179e-05
0.112932 4.040297e-05
0.113182 4.064885e-05
0.113432 4.087935e-05
0.113682 4.109442e-05
0.113932 4.129397e-05
0.114182 4.147797e-05
0.114432 4.164636e-05
0.114682 4.179909e-05
0.114932 4.193613e-05
0.115182 4.205743e-05
0.115432 4.216298e-05
0.115682 4.225276e-05
0.115932 4.232674e-05
0.116182 4.238492e-05
0.116432 4.242730e-05
0.116682 4.245387e-05
0.116932 4.246465e-05
0.117182 4.245964e-05
0.117432 4.243888e-05
0.117682 4.240237e-05
0.117932 4.235017e-05
0.118182 4.228230e-05
0.118432 4.219880e-05
0.118682 4.209973e-05
0.118932 4.198513e-05
0.119182 4.185508e-05
0.119432 4.170963e-05
0.119682 4.154886e-05
0.119932 4.137285e-05
0.120182 4.118167e-05
0.120432 4.097541e-05
0.120682 4.075418e-05
0.120932 4.051806e-05
0.121182 4.026716e-05
0.121432 4.000160e-05
0.121682 3.972149e-05
0.121932 3.942694e-05
0.122182 3.911809e-05
0.122432 3.879506e-05
0.122682 3.845800e-05
0.122932 3.810704e-05
0.123182 3.774233e-05
0.123432 3.736402e-05
0.123682 3.697226e-05
0.123932 3.656722e-05
0.124182 3.614907e-05
0.124432 3.571796e-05
0.124682 3.527409e-05
0.124932 3.481762e-05
0.125182 3.434874e-05
0.125432 3.386764e-05
0.125682 3.337451e-05
0.125932 3.286955e-05
0.126182 3.235296e-05
0.126432 3.182495e-05
0.126682 3.128571e-05
0.126932 3.073548e-05
0.127182 3.017446e-05
0.127432 2.960287e-05
0.127682 2.902094e-05
0.127932 2.842889e-05
0.128182 2.782697e-05
0.128432 2.721539e-05
0.128682 2.659441e-05
0.128932 2.596425e-05
0.129182 2.532518e-05
0.129432 2.467742e-05
0.129682 2.402124e-05
0.129932 2.335689e-05
0.130182 2.268462e-05
0.130432 2.200469e-05
0.130682 2.131736e-05
0.130932 2.062290e-05
0.131182 1.992157e-05
0.131432 1.921364e-05
0.131682 1.849938e-05
0.131932 1.777906e-05
0.132182 1.705296e-05
0.132432 1.632135e-05
0.132682 1.558451e-05
0.132932 1.484273e-05
0.133182 1.409627e-05
0.133432 1.334543e-05
0.133682 1.259049e-05
0.133932 1.183172e-05
0.134182 1.106943e-05
0.134432 1.030389e-05
0.134682 9.535393e-06
0.134932 8.764227e-06
0.135182 7.990681e-06
0.135432 7.215046e-06
0.135682 6.437611e-06
0.135932 5.658667e-06
0.136182 4.878504e-06
0.136432 4.097414e-06
0.136682 3.315687e-06
0.136932 2.533615e-06
0.137182 1.751487e-06
0.137432 9.695939e-07
0.137682 1.882258e-07
0.137932 -5.923283e-07
0.138182 -1.371780e-06
0.138432 -2.149840e-06
0.138682 -2.926223e-06
0.138932 -3.700642e-06
0.139182 -4.472813e-06
0.139432 -5.242450e-06
0.139682 -6.009272e-06
0.139932 -6.772998e-06
0.140182 -7.533347e-06
0.140432 -8.290042e-06
0.140682 -9.042805e-06
0.140932 -9.791363e-06
0.141182 -1.053544e-05
0.141432 -1.127477e-05
0.141682 -1.200908e-05
0.141932 -1.273811e-05
0.142182 -1.346158e-05
0.142432 -1.417925e-05
0.142682 -1.489084e-05
0.142932 -1.559611e-05
0.143182 -1.629480e-05
0.143432 -1.698665e-05
0.143682 -1.767141e-05
0.143932 -1.834885e-05
0.144182 -1.901872e-05
0.144432 -1.968078e-05
0.144682 -2.033479e-05
0.144932 -2.098051e-05
0.145182 -2.161773e-05
0.145432 -2.224621e-05
0.145682 -2.286573e-05
0.145932 -2.347607e-05
0.146182 -2.407701e-05
0.146432 -2.466834e-05
0.146682 -2.524986e-05
0.146932 -2.582136e-05
0.147182 -2.638263e-05
0.147432 -2.693349e-05
0.147682 -2.747374e-05
0.147932 -2.800319e-05
0.148182 -2.852165e-05
0.148432 -2.902896e-05
0.148682 -2.952493e-05
0.148932 -3.000939e-05
0.149182 -3.048217e-05
0.149432 -3.094312e-05
0.149682 -3.139208e-05
0.149932 -3.182888e-05
0.150182 -3.225340e-05
0.150432 -3.266547e-05
0.150682 -3.306497e-05
0.150932 -3.345176e-05
0.151182 -3.382570e-05
0.151432 -3.418669e-05
0.151682 -3.453459e-05
0.151932 -3.486930e-05
0.152182 -3.519070e-05
0.152432 -3.549869e-05
0.152682 -3.579318e-05
0.152932 -3.607406e-05
0.153182 -3.634125e-05
0.153432 -3.659467e-05
0.153682 -3.683424e-05
0.153932 -3.705988e-05
0.154182 -3.727153e-05
0.154432 -3.746912e-05
0.154682 -3.765260e-05
0.154932 -3.782192e-05
0.155182 -3.797703e-05
0.155432 -3.811788e-05
0.155682 -3.824445e-05
0.155932 -3.835670e-05
0.156182 -3.845460e-05
0.156432 -3.853814e-05
0.156682 -3.860730e-05
0.156932 -3.866208e-05
0.157182 -3.870246e-05
0.157432 -3.872845e-05
0.157682 -3.874006e-05
0.157932 -3.873730e-05
0.158182 -3.872019e-05
0.158432 -3.868874e-05
0.158682 -3.864300e-05
0.158932 -3.858298e-05
0.159182 -3.850873e-05
0.159432 -3.842030e-05
0.159682 -3.831772e-05
0.159932 -3.820106e-05
0.160182 -3.807038e-05
0.160432 -3.792574e-05
0.160682 -3.776720e-05
0.160932 -3.759485e-05
0.161182 -3.740877e-05
0.161432 -3.720903e-05
0.161682 -3.699573e-05
0.161932 -3.676896e-05
0.162182 -3.652882e-05
0.162432 -3.627541e-05
0.162682 -3.600886e-05
0.162932 -3.572926e-05
0.163182 -3.543673e-05
0.163432 -3.513141e-05
0.163682 -3.481341e-05
0.163932 -3.448288e-05
0.164182 -3.413994e-05
0.164432 -3.378474e-05
0.164682 -3.341742e-05
0.164932 -3.303813e-05
0.165182 -3.264704e-05
0.165432 -3.224428e-05
0.165682 -3.183004e-05
0.165932 -3.140447e-05
0.166182 -3.096775e-05
0.166432 -3.052004e-05
0.166682 -3.006154e-05
0.166932 -2.959241e-05
0.167182 -2.911285e-05
0.167432 -2.862305e-05
0.167682 -2.812319e-05
0.167932 -2.761348e-05
0.168182 -2.709412e-05
0.168432 -2.656530e-05
0.168682 -2.602724e-05
0.168932 -2.548015e-05
0.169182 -2.492423e-05
0.169432 -2.435971e-05
0.169682 -2.378680e-05
0.169932 -2.320572e-05
0.170182 -2.261670e-05
0.170432 -2.201997e-05
0.170682 -2.141576e-05
0.170932 -2.080429e-05
0.171182 -2.018580e-05
0.171432 -1.956054e-05
0.171682 -1.892874e-05
0.171932 -1.829063e-05
0.172182 -1.764647e-05
0.172432 -1.699650e-05
0.172682 -1.634097e-05
0.172932 -1.568012e-05
0.173182 -1.501421e-05
0.173432 -1.434349e-05
0.173682 -1.366821e-05
0.173932 -1.298863e-05
0.174182 -1.230500e-05
0.174432 -1.161758e-05
0.174682 -1.092664e-05
0.174932 -1.023243e-05
0.175182 -9.535209e-06
0.175432 -8.835242e-06
0.175682 -8.132791e-06
0.175932 -7.428119e-06
0.176182 -6.721488e-06
0.176432 -6.013164e-06
0.176682 -5.303409e-06
0.176932 -4.592489e-06
0.177182 -3.880668e-06
0.177432 -3.168210e-06
0.177682 -2.455381e-06
0.177932 -1.742444e-06
0.178182 -1.029663e-06
0.178432 -3.173030e-07
0.178682 3.943738e-07
0.178932 1.105104e-06
0.179182 1.814627e-06
0.179432 2.522680e-06
0.179682 3.229003e-06
0.179932 3.933336e-06
0.180182 4.635421e-06
0.180432 5.335001e-06
0.180682 6.031820e-06
0.180932 6.725622e-06
0.181182 7.416154e-06
0.181432 8.103164e-06
0.181682 8.786403e-06
0.181932 9.465621e-06
0.182182 1.014057e-05
0.182432 1.081101e-05
0.182682 1.147669e-05
0.182932 1.213737e-05
0.183182 1.279282e-05
0.183432 1.344280e-05
0.183682 1.408707e-05
0.183932 1.472540e-05
0.184182 1.535757e-05
0.184432 1.598333e-05
0.184682 1.660248e-05
0.184932 1.721479e-05
0.185182 1.782003e-05
0.185432 1.841800e-05
0.185682 1.900848e-05
0.185932 1.959126e-05
0.186182 2.016614e-05
0.186432 2.073290e-05
0.186682 2.129135e-05
0.186932 2.184129e-05
0.187182 2.238253e-05
0.187432 2.291488e-05
0.187682 2.343815e-05
0.187932 2.395215e-05