-0.138818 -1.180861e-05
-0.138568 -1.276044e-05
-0.138318 -1.370376e-05
-0.138068 -1.463813e-05
-0.137818 -1.556311e-05
-0.137568 -1.647829e-05
-0.137318 -1.738324e-05
-0.137068 -1.827756e-05
-0.136818 -1.916083e-05
-0.136568 -2.003266e-05
-0.136318 -2.089265e-05
-0.136068 -2.174042e-05
-0.135818 -2.257559e-05
-0.135568 -2.339778e-05
-0.135318 -2.420662e-05
-0.135068 -2.500177e-05
-0.134818 -2.578286e-05
-0.134568 -2.654956e-05
-0.134318 -2.730153e-05
-0.134068 -2.803844e-05
-0.133818 -2.875998e-05
-0.133568 -2.946582e-05
-0.133318 -3.015567e-05
-0.133068 -3.082924e-05
-0.132818 -3.148623e-05
-0.132568 -3.212638e-05
-0.132318 -3.274941e-05
-0.132068 -3.335506e-05
-0.131818 -3.394308e-05
-0.131568 -3.451324e-05
-0.131318 -3.506529e-05
-0.131068 -3.559902e-05
-0.130818 -3.611421e-05
-0.130568 -3.661066e-05
-0.130318 -3.708818e-05
-0.130068 -3.754657e-05
-0.129818 -3.798567e-05
-0.129568 -3.840531e-05
-0.129318 -3.880534e-05
-0.129068 -3.918559e-05
-0.128818 -3.954596e-05
-0.128568 -3.988629e-05
-0.128318 -4.020649e-05
-0.128068 -4.050644e-05
-0.127818 -4.078605e-05
-0.127568 -4.104522e-05
-0.127318 -4.128390e-05
-0.127068 -4.150200e-05
-0.126818 -4.169948e-05
-0.126568 -4.187628e-05
-0.126318 -4.203238e-05
-0.126068 -4.216774e-05
-0.125818 -4.228236e-05
-0.125568 -4.237622e-05
-0.125318 -4.244933e-05
-0.125068 -4.250170e-05
-0.124818 -4.253336e-05
-0.124568 -4.254435e-05
-0.124318 -4.253470e-05
-0.124068 -4.250447e-05
-0.123818 -4.245373e-05
-0.123568 -4.238254e-05
-0.123318 -4.229100e-05
-0.123068 -4.217918e-05
-0.122818 -4.204721e-05
-0.122568 -4.189518e-05
-0.122318 -4.172322e-05
-0.122068 -4.153146e-05
-0.121818 -4.132003e-05
-0.121568 -4.108909e-05
-0.121318 -4.083880e-05
-0.121068 -4.056931e-05
-0.120818 -4.028082e-05
-0.120568 -3.997349e-05
-0.120318 -3.964752e-05
-0.120068 -3.930312e-05
-0.119818 -3.894049e-05
-0.119568 -3.855985e-05
-0.119318 -3.816143e-05
-0.119068 -3.774545e-05
-0.118818 -3.731217e-05
-0.118568 -3.686183e-05
-0.118318 -3.639469e-05
-0.118068 -3.591101e-05
-0.117818 -3.541107e-05
-0.117568 -3.489513e-05
-0.117318 -3.436350e-05
-0.117068 -3.381646e-05
-0.116818 -3.325431e-05
-0.116568 -3.267735e-05
-0.116318 -3.208591e-05
-0.116068 -3.148029e-05
-0.115818 -3.086082e-05
-0.115568 -3.022783e-05
-0.115318 -2.958167e-05
-0.115068 -2.892266e-05
-0.114818 -2.825115e-05
-0.114568 -2.756751e-05
-0.114318 -2.687208e-05
-0.114068 -2.616522e-05
-0.113818 -2.544731e-05
-0.113568 -2.471871e-05
-0.113318 -2.397980e-05
-0.113068 -2.323096e-05
-0.112818 -2.247256e-05
-0.112568 -2.170500e-05
-0.112318 -2.092867e-05
-0.112068 -2.014395e-05
-0.111818 -1.935125e-05
-0.111568 -1.855096e-05
-0.111318 -1.774349e-05
-0.111068 -1.692924e-05
-0.110818 -1.610861e-05
-0.110568 -1.528202e-05
-0.110318 -1.444987e-05
-0.110068 -1.361258e-05
-0.109818 -1.277055e-05
-0.109568 -1.192421e-05
-0.109318 -1.107397e-05
-0.109068 -1.022025e-05
-0.108818 -9.363458e-06
-0.108568 -8.504018e-06
-0.108318 -7.642347e-06
-0.108068 -6.778863e-06
-0.107818 -5.913984e-06
-0.107568 -5.048126e-06
-0.107318 -4.181706e-06
-0.107068 -3.315142e-06
-0.106818 -2.448847e-06
-0.106568 -1.583237e-06
-0.106318 -7.187223e-07
-0.106068 1.442843e-07
-0.105818 1.005374e-06
-0.105568 1.864139e-06
-0.105318 2.720174e-06
-0.105068 3.573076e-06
-0.104818 4.422444e-06
-0.104568 5.267881e-06
-0.104318 6.108991e-06
-0.104068 6.945383e-06
-0.103818 7.776667e-06
-0.103568 8.602458e-06
-0.103318 9.422375e-06
-0.103068 1.023604e-05
-0.102818 1.104307e-05
-0.102568 1.184311e-05
-0.102318 1.263579e-05
-0.102068 1.342074e-05
-0.101818 1.419761e-05
-0.101568 1.496604e-05
-0.101318 1.572570e-05
-0.101068 1.647623e-05
-0.100818 1.721730e-05
-0.100568 1.794857e-05
-0.100318 1.866973e-05
-0.100068 1.938045e-05
-0.099818 2.008042e-05
-0.099568 2.076932e-05
-0.099318 2.144686e-05
-0.099068 2.211273e-05
-0.098818 2.276665e-05
-0.098568 2.340833e-05
-0.098318 2.403750e-05
-0.098068 2.465389e-05
-0.097818 2.525722e-05
-0.097568 2.584725e-05
-0.097318 2.642371e-05
-0.097068 2.698638e-05
-0.096818 2.753501e-05
-0.096568 2.806938e-05
-0.096318 2.858926e-05
-0.096068 2.909443e-05
-0.095818 2.958470e-05
-0.095568 3.005987e-05
-0.095318 3.051974e-05
-0.095068 3.096412e-05
-0.094818 3.139285e-05
-0.094568 3.180576e-05
-0.094318 3.220268e-05
-0.094068 3.258347e-05
-0.093818 3.294798e-05
-0.093568 3.329607e-05
-0.093318 3.362762e-05
-0.093068 3.394251e-05
-0.092818 3.424063e-05
-0.092568 3.452187e-05
-0.092318 3.478615e-05
-0.092068 3.503337e-05
-0.091818 3.526345e-05
-0.091568 3.547633e-05
-0.091318 3.567195e-05
-0.091068 3.585025e-05
-0.090818 3.601119e-05
-0.090568 3.615473e-05
-0.090318 3.628085e-05
-0.090068 3.638953e-05
-0.089818 3.648075e-05
-0.089568 3.655451e-05
-0.089318 3.661082e-05
-0.089068 3.664969e-05
-0.088818 3.667115e-05
-0.088568 3.667522e-05
-0.088318 3.666195e-05
-0.088068 3.663137e-05
-0.087818 3.658356e-05
-0.087568 3.651856e-05
-0.087318 3.643645e-05
-0.087068 3.633731e-05
-0.086818 3.622122e-05
-0.086568 3.608829e-05
-0.086318 3.593861e-05
-0.086068 3.577229e-05
-0.085818 3.558945e-05
-0.085568 3.539022e-05
-0.085318 3.517473e-05
-0.085068 3.494312e-05
-0.084818 3.469554e-05
-0.084568 3.443214e-05
-0.084318 3.415308e-05
-0.084068 3.385854e-05
-0.083818 3.354869e-05
-0.083568 3.322371e-05
-0.083318 3.288380e-05
-0.083068 3.252914e-05
-0.082818 3.215994e-05
-0.082568 3.177642e-05
-0.082318 3.137878e-05
-0.082068 3.096725e-05
-0.081818 3.054206e-05
-0.081568 3.010344e-05
-0.081318 2.965162e-05
-0.081068 2.918686e-05
-0.080818 2.870940e-05
-0.080568 2.821951e-05
-0.080318 2.771744e-05
-0.080068 2.720346e-05
-0.079818 2.667784e-05
-0.079568 2.614086e-05
-0.079318 2.559279e-05
-0.079068 2.503393e-05
-0.078818 2.446457e-05
-0.078568 2.388499e-05
-0.078318 2.329551e-05
-0.078068 2.269641e-05
-0.077818 2.208801e-05
-0.077568 2.147062e-05
-0.077318 2.084455e-05
-0.077068 2.021011e-05
-0.076818 1.956764e-05
-0.076568 1.891745e-05
-0.076318 1.825986e-05
-0.076068 1.759521e-05
-0.075818 1.692383e-05
-0.075568 1.624605e-05
-0.075318 1.556221e-05
-0.075068 1.487265e-05
-0.074818 1.417770e-05
-0.074568 1.347771e-05
-0.074318 1.277302e-05
-0.074068 1.206398e-05
-0.073818 1.135092e-05
-0.073568 1.063421e-05
-0.073318 9.914184e-06
-0.073068 9.191194e-06
-0.072818 8.465588e-06
-0.072568 7.737717e-06
-0.072318 7.007930e-06
-0.072068 6.276578e-06
-0.071818 5.544010e-06
-0.071568 4.810575e-06
-0.071318 4.076624e-06
-0.071068 3.342504e-06
-0.070818 2.608564e-06
-0.070568 1.875151e-06
-0.070318 1.142609e-06
-0.070068 4.112847e-07
-0.069818 -3.184797e-07
-0.069568 -1.046342e-06
-0.069318 -1.771963e-06
-0.069068 -2.495004e-06
-0.068818 -3.215130e-06
-0.068568 -3.932005e-06
-0.068318 -4.645299e-06
-0.068068 -5.354683e-06
-0.067818 -6.059831e-06
-0.067568 -6.760417e-06
-0.067318 -7.456123e-06
-0.067068 -8.146630e-06
-0.066818 -8.831623e-06
-0.066568 -9.510792e-06
-0.066318 -1.018383e-05
-0.066068 -1.085043e-05
-0.065818 -1.151030e-05
-0.065568 -1.216313e-05
-0.065318 -1.280864e-05
-0.065068 -1.344653e-05
-0.064818 -1.407653e-05
-0.064568 -1.469835e-05
-0.064318 -1.531172e-05
-0.064068 -1.591637e-05
-0.063818 -1.651204e-05
-0.063568 -1.709845e-05
-0.063318 -1.767536e-05
-0.063068 -1.824252e-05
-0.062818 -1.879968e-05
-0.062568 -1.934660e-05
-0.062318 -1.988304e-05
-0.062068 -2.040879e-05
-0.061818 -2.092360e-05
-0.061568 -2.142727e-05
-0.061318 -2.191958e-05
-0.061068 -2.240033e-05
-0.060818 -2.286932e-05
-0.060568 -2.332635e-05
-0.060318 -2.377123e-05
-0.060068 -2.420379e-05
-0.059818 -2.462384e-05
-0.059568 -2.503121e-05
-0.059318 -2.542575e-05
-0.059068 -2.580730e-05
-0.058818 -2.617570e-05
-0.058568 -2.653082e-05
-0.058318 -2.687251e-05
-0.058068 -2.720064e-05
-0.057818 -2.751510e-05
-0.057568 -2.781576e-05
-0.057318 -2.810252e-05
-0.057068 -2.837527e-05
-0.056818 -2.863391e-05
-0.056568 -2.887836e-05
-0.056318 -2.910852e-05
-0.056068 -2.932434e-05
-0.055818 -2.952573e-05
-0.055568 -2.971264e-05
-0.055318 -2.988500e-05
-0.055068 -3.004278e-05
-0.054818 -3.018593e-05
-0.054568 -3.031442e-05
-0.054318 -3.042821e-05
-0.054068 -3.052730e-05
-0.053818 -3.061166e-05
-0.053568 -3.068129e-05
-0.053318 -3.073619e-05
-0.053068 -3.077637e-05
-0.052818 -3.080185e-05
-0.052568 -3.081264e-05
-0.052318 -3.080877e-05
-0.052068 -3.079028e-05
-0.051818 -3.075721e-05
-0.051568 -3.070961e-05
-0.051318 -3.064753e-05
-0.051068 -3.057104e-05
-0.050818 -3.048020e-05
-0.050568 -3.037509e-05
-0.050318 -3.025580e-05
-0.050068 -3.012240e-05
-0.049818 -2.997500e-05
-0.049568 -2.981370e-05
-0.049318 -2.963860e-05
-0.049068 -2.944981e-05
-0.048818 -2.924746e-05
-0.048568 -2.903168e-05
-0.048318 -2.880259e-05
-0.048068 -2.856033e-05
-0.047818 -2.830504e-05
-0.047568 -2.803688e-05
-0.047318 -2.775601e-05
-0.047068 -2.746257e-05
-0.046818 -2.715674e-05
-0.046568 -2.683869e-05
-0.046318 -2.650859e-05
-0.046068 -2.616664e-05
-0.045818 -2.581300e-05
-0.045568 -2.544789e-05
-0.045318 -2.507149e-05
-0.045068 -2.468401e-05
-0.044818 -2.428566e-05
-0.044568 -2.387664e-05
-0.044318 -2.345717e-05
-0.044068 -2.302747e-05
-0.043818 -2.258778e-05
-0.043568 -2.213831e-05
-0.043318 -2.167929e-05
-0.043068 -2.121098e-05
-0.042818 -2.073360e-05
-0.042568 -2.024740e-05
-0.042318 -1.975263e-05
-0.042068 -1.924955e-05
-0.041818 -1.873840e-05
-0.041568 -1.821944e-05
-0.041318 -1.769293e-05
-0.041068 -1.715915e-05
-0.040818 -1.661835e-05
-0.040568 -1.607080e-05
-0.040318 -1.551678e-05
-0.040068 -1.495656e-05
-0.039818 -1.439041e-05
-0.039568 -1.381863e-05
-0.039318 -1.324148e-05
-0.039068 -1.265924e-05
-0.038818 -1.207221e-05
-0.038568 -1.148067e-05
-0.038318 -1.088491e-05
-0.038068 -1.028521e-05
-0.037818 -9.681869e-06
-0.037568 -9.075172e-06
-0.037318 -8.465411e-06
-0.037068 -7.852881e-06
-0.036818 -7.237874e-06
-0.036568 -6.620683e-06
-0.036318 -6.001603e-06
-0.036068 -5.380928e-06
-0.035818 -4.758952e-06
-0.035568 -4.135969e-06
-0.035318 -3.512273e-06
-0.035068 -2.888157e-06
-0.034818 -2.263916e-06
-0.034568 -1.639840e-06
-0.034318 -1.016223e-06
-0.034068 -3.933547e-07
-0.033818 2.284749e-07
-0.033568 8.489772e-07
-0.033318 1.467865e-06
-0.033068 2.084851e-06
-0.032818 2.699653e-06
-0.032568 3.311986e-06
-0.032318 3.921570e-06
-0.032068 4.528127e-06
-0.031818 5.131378e-06
-0.031568 5.731050e-06
-0.031318 6.326869e-06
-0.031068 6.918566e-06
-0.030818 7.505873e-06
-0.030568 8.088526e-06
-0.030318 8.666262e-06
-0.030068 9.238821e-06
-0.029818 9.805949e-06
-0.029568 1.036739e-05
-0.029318 1.092290e-05
-0.029068 1.147222e-05
-0.028818 1.201512e-05
-0.028568 1.255136e-05
-0.028318 1.308070e-05
-0.028068 1.360290e-05
-0.027818 1.411775e-05
-0.027568 1.462501e-05
-0.027318 1.512447e-05
-0.027068 1.561590e-05
-0.026818 1.609910e-05
-0.026568 1.657387e-05
-0.026318 1.703999e-05
-0.026068 1.749727e-05
-0.025818 1.794551e-05
-0.025568 1.838453e-05
-0.025318 1.881414e-05
-0.025068 1.923415e-05
-0.024818 1.964441e-05
-0.024568 2.004473e-05
-0.024318 2.043495e-05
-0.024068 2.081491e-05
-0.023818 2.118445e-05
-0.023568 2.154344e-05
-0.023318 2.189171e-05
-0.023068 2.222914e-05
-0.022818 2.255559e-05
-0.022568 2.287093e-05
-0.022318 2.317503e-05
-0.022068 2.346779e-05
-0.021818 2.374909e-05
-0.021568 2.401882e-05
-0.021318 2.427688e-05
-0.021068 2.452319e-05
-0.020818 2.475764e-05
-0.020568 2.498015e-05
-0.020318 2.519066e-05
-0.020068 2.538908e-05
-0.019818 2.557535e-05
-0.019568 2.574941e-05
-0.019318 2.591120e-05
-0.019068 2.606068e-05
-0.018818 2.619781e-05
-0.018568 2.632254e-05
-0.018318 2.643485e-05
-0.018068 2.653470e-05
-0.017818 2.662209e-05
-0.017568 2.669700e-05
-0.017318 2.675941e-05
-0.017068 2.680933e-05
-0.016818 2.684676e-05
-0.016568 2.687171e-05
-0.016318 2.688420e-05
-0.016068 2.688425e-05
-0.015818 2.687188e-05
-0.015568 2.684713e-05
-0.015318 2.681003e-05
-0.015068 2.676063e-05
-0.014818 2.669898e-05
-0.014568 2.662513e-05
-0.014318 2.653915e-05
-0.014068 2.644110e-05
-0.013818 2.633105e-05
-0.013568 2.620908e-05
-0.013318 2.607527e-05
-0.013068 2.592971e-05
-0.012818 2.577250e-05
-0.012568 2.560372e-05
-0.012318 2.542349e-05
-0.012068 2.523191e-05
-0.011818 2.502909e-05
-0.011568 2.481516e-05
-0.011318 2.459024e-05
-0.011068 2.435445e-05
-0.010818 2.410792e-05
-0.010568 2.385081e-05
-0.010318 2.358324e-05
-0.010068 2.330537e-05
-0.009818 2.301734e-05
-0.009568 2.271931e-05
-0.009318 2.241144e-05
-0.009068 2.209390e-05
-0.008818 2.176684e-05
-0.008568 2.143046e-05
-0.008318 2.108491e-05
-0.008068 2.073038e-05
-0.007818 2.036706e-05
-0.007568 1.999513e-05
-0.007318 1.961478e-05
-0.007068 1.922621e-05
-0.006818 1.882961e-05
-0.006568 1.842519e-05
-0.006318 1.801315e-05
-0.006068 1.759369e-05
-0.005818 1.716703e-05
-0.005568 1.673338e-05
-0.005318 1.629295e-05
-0.005068 1.584597e-05
-0.004818 1.539266e-05
-0.004568 1.493323e-05
-0.004318 1.446792e-05
-0.004068 1.399695e-05
-0.003818 1.352055e-05
-0.003568 1.303896e-05
-0.003318 1.255241e-05
-0.003068 1.206113e-05
-0.002818 1.156537e-05
-0.002568 1.106535e-05
-0.002318 1.056133e-05
-0.002068 1.005354e-05
-0.001818 9.542224e-06
-0.001568 9.027630e-06
-0.001318 8.510002e-06
-0.001068 7.989585e-06
-0.000818 7.466627e-06
-0.000568 6.941373e-06
-0.000318 6.414072e-06
-0.000068 5.884973e-06
0.000182 5.354323e-06
0.000432 4.822371e-06
0.000682 4.289367e-06
0.000932 3.755557e-06
0.001182 3.221192e-06
0.001432 2.686519e-06
0.001682 2.151785e-06
0.001932 1.617239e-06
0.002182 1.083127e-06
0.002432 5.496934e-07
0.002682 1.718479e-08
0.002932 -5.141553e-07
0.003182 -1.044084e-06
0.003432 -1.572359e-06
0.003682 -2.098741e-06
0.003932 -2.622990e-06
0.004182 -3.144869e-06
0.004432 -3.664142e-06
0.004682 -4.180574e-06
0.004932 -4.693933e-06
0.005182 -5.203989e-06
0.005432 -5.710513e-06
0.005682 -6.213279e-06
0.005932 -6.712063e-06
0.006182 -7.206644e-06
0.006432 -7.696801e-06
0.006682 -8.182318e-06
0.006932 -8.662981e-06
0.007182 -9.138578e-06
0.007432 -9.608901e-06
0.007682 -1.007374e-05
0.007932 -1.053290e-05
0.008182 -1.098618e-05
0.008432 -1.143338e-05
0.008682 -1.187430e-05
0.008932 -1.230877e-05
0.009182 -1.273658e-05
0.009432 -1.315756e-05
0.009682 -1.357153e-05
0.009932 -1.397831e-05
0.010182 -1.437773e-05
0.010432 -1.476962e-05
0.010682 -1.515381e-05
0.010932 -1.553015e-05
0.011182 -1.589848e-05
0.011432 -1.625864e-05
0.011682 -1.661050e-05
0.011932 -1.695389e-05
0.012182 -1.728868e-05
0.012432 -1.761474e-05
0.012682 -1.793193e-05
0.012932 -1.824013e-05
0.013182 -1.853922e-05
0.013432 -1.882906e-05
0.013682 -1.910956e-05
0.013932 -1.938060e-05
0.014182 -1.964207e-05
0.014432 -1.989388e-05
0.014682 -2.013593e-05
0.014932 -2.036812e-05
0.015182 -2.059038e-05
0.015432 -2.080262e-05
0.015682 -2.100477e-05
0.015932 -2.119675e-05
0.016182 -2.137849e-05
0.016432 -2.154993e-05
0.016682 -2.171102e-05
0.016932 -2.186171e-05
0.017182 -2.200194e-05
0.017432 -2.213167e-05
0.017682 -2.225087e-05
0.017932 -2.235949e-05
0.018182 -2.245753e-05
0.018432 -2.254494e-05
0.018682 -2.262172e-05
0.018932 -2.268784e-05
0.019182 -2.274331e-05
0.019432 -2.278811e-05
0.019682 -2.282226e-05
0.019932 -2.284575e-05
0.020182 -2.285859e-05
0.020432 -2.286081e-05
0.020682 -2.285243e-05
0.020932 -2.283346e-05
0.021182 -2.280395e-05
0.021432 -2.276392e-05
0.021682 -2.271341e-05
0.021932 -2.265248e-05
0.022182 -2.258117e-05
0.022432 -2.249953e-05
0.022682 -2.240762e-05
0.022932 -2.230551e-05
0.023182 -2.219327e-05
0.023432 -2.207096e-05
0.023682 -2.193867e-05
0.023932 -2.179647e-05
0.024182 -2.164445e-05
0.024432 -2.148270e-05
0.024682 -2.131131e-05
0.024932 -2.113039e-05
0.025182 -2.094004e-05
0.025432 -2.074035e-05
0.025682 -2.053145e-05
0.025932 -2.031345e-05
0.026182 -2.008646e-05
0.026432 -1.985061e-05
0.026682 -1.960602e-05
0.026932 -1.935283e-05
0.027182 -1.909116e-05
0.027432 -1.882117e-05
0.027682 -1.854297e-05
0.027932 -1.825673e-05
0.028182 -1.796259e-05
0.028432 -1.766069e-05
0.028682 -1.735120e-05
0.028932 -1.703426e-05
0.029182 -1.671005e-05
0.029432 -1.637872e-05
0.029682 -1.604044e-05
0.029932 -1.569538e-05
0.030182 -1.534370e-05
0.030432 -1.498559e-05
0.030682 -1.462123e-05
0.030932 -1.425078e-05
0.031182 -1.387444e-05
0.031432 -1.349238e-05
0.031682 -1.310480e-05
0.031932 -1.271188e-05
0.032182 -1.231381e-05
0.032432 -1.191078e-05
0.032682 -1.150299e-05
0.032932 -1.109064e-05
0.033182 -1.067392e-05
0.033432 -1.025304e-05
0.033682 -9.828183e-06
0.033932 -9.399564e-06
0.034182 -8.967383e-06
0.034432 -8.531845e-06
0.034682 -8.093156e-06
0.034932 -7.651523e-06
0.035182 -7.207152e-06
0.035432 -6.760254e-06
0.035682 -6.311036e-06
0.035932 -5.859708e-06
0.036182 -5.406482e-06
0.036432 -4.951567e-06
0.036682 -4.495175e-06
0.036932 -4.037516e-06
0.037182 -3.578804e-06
0.037432 -3.119248e-06
0.037682 -2.659060e-06
0.037932 -2.198452e-06
0.038182 -1.737634e-06
0.038432 -1.276817e-06
0.038682 -8.162111e-07
0.038932 -3.560262e-07
0.039182 1.035288e-07
0.039432 5.622457e-07
0.039682 1.019917e-06
0.039932 1.476336e-06
0.040182 1.931298e-06
0.040432 2.384597e-06
0.040682 2.836032e-06
0.040932 3.285398e-06
0.041182 3.732497e-06
0.041432 4.177129e-06
0.041682 4.619096e-06
0.041932 5.058202e-06
0.042182 5.494254e-06
0.042432 5.927058e-06
0.042682 6.356424e-06
0.042932 6.782163e-06
0.043182 7.204089e-06
0.043432 7.622017e-06
0.043682 8.035765e-06
0.043932 8.445154e-06
0.044182 8.850004e-06
0.044432 9.250142e-06
0.044682 9.645395e-06
0.044932 1.003559e-05
0.045182 1.042057e-05
0.045432 1.080015e-05
0.045682 1.117419e-05
0.045932 1.154252e-05
0.046182 1.190498e-05
0.046432 1.226142e-05
0.046682 1.261170e-05
0.046932 1.295566e-05
0.047182 1.329317e-05
0.047432 1.362407e-05
0.047682 1.394824e-05
0.047932 1.426554e-05
0.048182 1.457583e-05
0.048432 1.487900e-05
0.048682 1.517491e-05
0.048932 1.546346e-05
0.049182 1.574451e-05
0.049432 1.601797e-05
0.049682 1.628371e-05
0.049932 1.654164e-05
0.050182 1.679165e-05
0.050432 1.703364e-05
0.050682 1.726753e-05
0.050932 1.749322e-05
0.051182 1.771062e-05
0.051432 1.791965e-05
0.051682 1.812024e-05
0.051932 1.831231e-05
0.052182 1.849578e-05
0.052432 1.867060e-05
0.052682 1.883670e-05
0.052932 1.899403e-05
0.053182 1.914252e-05
0.053432 1.928213e-05
0.053682 1.941281e-05
0.053932 1.953453e-05
0.054182 1.964723e-05
0.054432 1.975090e-05
0.054682 1.984550e-05
0.054932 1.993101e-05
0.055182 2.000740e-05
0.055432 2.007466e-05
0.055682 2.013278e-05
0.055932 2.018174e-05
0.056182 2.022155e-05
0.056432 2.025220e-05
0.056682 2.027370e-05
0.056932 2.028605e-05
0.057182 2.028927e-05
0.057432 2.028338e-05
0.057682 2.026839e-05
0.057932 2.024433e-05
0.058182 2.021124e-05
0.058432 2.016913e-05
0.058682 2.011805e-05
0.058932 2.005803e-05
0.059182 1.998914e-05
0.059432 1.991140e-05
0.059682 1.982488e-05
0.059932 1.972962e-05
0.060182 1.962570e-05
0.060432 1.951317e-05
0.060682 1.939211e-05
0.060932 1.926258e-05
0.061182 1.912465e-05
0.061432 1.897842e-05
0.061682 1.882395e-05
0.061932 1.866134e-05
0.062182 1.849068e-05
0.062432 1.831205e-05
0.062682 1.812556e-05
0.062932 1.793130e-05
0.063182 1.772938e-05
0.063432 1.751990e-05
0.063682 1.730297e-05
0.063932 1.707870e-05
0.064182 1.684722e-05
0.064432 1.660864e-05
0.064682 1.636307e-05
0.064932 1.611065e-05
0.065182 1.585150e-05
0.065432 1.558575e-05
0.065682 1.531354e-05
0.065932 1.503499e-05
0.066182 1.475026e-05
0.066432 1.445947e-05
0.066682 1.416277e-05
0.066932 1.386031e-05
0.067182 1.355224e-05
0.067432 1.323870e-05
0.067682 1.291984e-05
0.067932 1.259582e-05
0.068182 1.226680e-05
0.068432 1.193293e-05
0.068682 1.159438e-05
0.068932 1.125130e-05
0.069182 1.090386e-05
0.069432 1.055222e-05
0.069682 1.019656e-05
0.069932 9.837031e-06
0.070182 9.473811e-06
0.070432 9.107069e-06
0.070682 8.736977e-06
0.070932 8.363708e-06
0.071182 7.987437e-06
0.071432 7.608339e-06
0.071682 7.226590e-06
0.071932 6.842366e-06
0.072182 6.455846e-06
0.072432 6.067208e-06
0.072682 5.676630e-06
0.072932 5.284293e-06
0.073182 4.890376e-06
0.073432 4.495059e-06
0.073682 4.098523e-06
0.073932 3.700949e-06
0.074182 3.302517e-06
0.074432 2.903408e-06
0.074682 2.503803e-06
0.074932 2.103883e-06
0.075182 1.703827e-06
0.075432 1.303817e-06
0.075682 9.040306e-07
0.075932 5.046483e-07
0.076182 1.058485e-07
0.076432 -2.921907e-07
0.076682 -6.892920e-07
0.076932 -1.085279e-06
0.077182 -1.479976e-06
0.077432 -1.873207e-06
0.077682 -2.264800e-06
0.077932 -2.654582e-06
0.078182 -3.042381e-06
0.078432 -3.428026e-06
0.078682 -3.811349e-06
0.078932 -4.192183e-06
0.079182 -4.570360e-06
0.079432 -4.945717e-06
0.079682 -5.318091e-06
0.079932 -5.687320e-06
0.080182 -6.053244e-06
0.080432 -6.415706e-06
0.080682 -6.774549e-06
0.080932 -7.129621e-06
0.081182 -7.480768e-06
0.081432 -7.827841e-06
0.081682 -8.170692e-06
0.081932 -8.509175e-06
0.082182 -8.843148e-06
0.082432 -9.172468e-06
0.082682 -9.496998e-06
0.082932 -9.816600e-06
0.083182 -1.013114e-05
0.083432 -1.044049e-05
0.083682 -1.074452e-05
0.083932 -1.104310e-05
0.084182 -1.133612e-05
0.084432 -1.162344e-05
0.084682 -1.190495e-05
0.084932 -1.218054e-05
0.085182 -1.245010e-05
0.085432 -1.271351e-05
0.085682 -1.297067e-05
0.085932 -1.322147e-05
0.086182 -1.346582e-05
0.086432 -1.370362e-05
0.086682 -1.393478e-05
0.086932 -1.415920e-05
0.087182 -1.437679e-05
0.087432 -1.458748e-05
0.087682 -1.479118e-05
0.087932 -1.498782e-05
0.088182 -1.517731e-05
0.088432 -1.535959e-05
0.088682 -1.553459e-05
0.088932 -1.570224e-05
0.089182 -1.586249e-05
0.089432 -1.601528e-05
0.089682 -1.616055e-05
0.089932 -1.629826e-05
0.090182 -1.642835e-05
0.090432 -1.655078e-05
0.090682 -1.666551e-05
0.090932 -1.677251e-05
0.091182 -1.687174e-05
0.091432 -1.696317e-05
0.091682 -1.704678e-05
0.091932 -1.712254e-05
0.092182 -1.719044e-05
0.092432 -1.725045e-05
0.092682 -1.730258e-05
0.092932 -1.734680e-05
0.093182 -1.738312e-05
0.093432 -1.741153e-05
0.093682 -1.743204e-05
0.093932 -1.744465e-05
0.094182 -1.744938e-05
0.094432 -1.744622e-05
0.094682 -1.743521e-05
0.094932 -1.741635e-05
0.095182 -1.738968e-05
0.095432 -1.735522e-05
0.095682 -1.731300e-05
0.095932 -1.726306e-05
0.096182 -1.720542e-05
0.096432 -1.714014e-05
0.096682 -1.706725e-05
0.096932 -1.698680e-05
0.097182 -1.689885e-05
0.097432 -1.680344e-05
0.097682 -1.670063e-05
0.097932 -1.659048e-05
0.098182 -1.647306e-05
0.098432 -1.634843e-05
0.098682 -1.621666e-05
0.098932 -1.607782e-05
0.099182 -1.593198e-05
0.099432 -1.577924e-05
0.099682 -1.561966e-05
0.099932 -1.545333e-05
0.100182 -1.528034e-05
0.100432 -1.510077e-05
0.100682 -1.491473e-05
0.100932 -1.472229e-05
0.101182 -1.452357e-05
0.101432 -1.431867e-05
0.101682 -1.410768e-05
0.101932 -1.389071e-05
0.102182 -1.366786e-05
0.102432 -1.343926e-05
0.102682 -1.320501e-05
0.102932 -1.296522e-05
0.103182 -1.272002e-05
0.103432 -1.246952e-05
0.103682 -1.221384e-05
0.103932 -1.195311e-05
0.104182 -1.168746e-05
0.104432 -1.141700e-05
0.104682 -1.114188e-05
0.104932 -1.086221e-05
0.105182 -1.057814e-05
0.105432 -1.028980e-05
0.105682 -9.997315e-06
0.105932 -9.700837e-06
0.106182 -9.400500e-06
0.106432 -9.096445e-06
0.106682 -8.788814e-06
0.106932 -8.477750e-06
0.107182 -8.163398e-06
0.107432 -7.845904e-06
0.107682 -7.525415e-06
0.107932 -7.202078e-06
0.108182 -6.876042e-06
0.108432 -6.547458e-06
0.108682 -6.216475e-06
0.108932 -5.883246e-06
0.109182 -5.547922e-06
0.109432 -5.210657e-06
0.109682 -4.871603e-06
0.109932 -4.530914e-06
0.110182 -4.188745e-06
0.110432 -3.845250e-06
0.110682 -3.500584e-06
0.110932 -3.154902e-06
0.111182 -2.808359e-06
0.111432 -2.461111e-06
0.111682 -2.113312e-06
0.111932 -1.765119e-06
0.112182 -1.416686e-06
0.112432 -1.068168e-06
0.112682 -7.197199e-07
0.112932 -3.714959e-07
0.113182 -2.364992e-08
0.113432 3.236646e-07
0.113682 6.702947e-07
0.113932 1.016088e-06
0.114182 1.360893e-06
0.114432 1.704559e-06
0.114682 2.046935e-06
0.114932 2.387873e-06
0.115182 2.727224e-06
0.115432 3.064841e-06
0.115682 3.400577e-06
0.115932 3.734288e-06
0.116182 4.065829e-06
0.116432 4.395058e-06
0.116682 4.721833e-06
0.116932 5.046014e-06
0.117182 5.367462e-06
0.117432 5.686042e-06
0.117682 6.001615e-06
0.117932 6.314050e-06
0.118182 6.623213e-06
0.118432 6.928974e-06
0.118682 7.231203e-06
0.118932 7.529774e-06
0.119182 7.824562e-06
0.119432 8.115443e-06
0.119682 8.402295e-06
0.119932 8.685000e-06
0.120182 8.963440e-06
0.120432 9.237500e-06
0.120682 9.507067e-06
0.120932 9.772030e-06
0.121182 1.003228e-05
0.121432 1.028771e-05
0.121682 1.053822e-05
0.121932 1.078371e-05
0.122182 1.102407e-05
0.122432 1.125921e-05
0.122682 1.148904e-05
0.122932 1.171346e-05
0.123182 1.193239e-05
0.123432 1.214574e-05
0.123682 1.235342e-05
0.123932 1.255536e-05
0.124182 1.275147e-05
0.124432 1.294168e-05
0.124682 1.312591e-05
0.124932 1.330410e-05
0.125182 1.347619e-05
0.125432 1.364209e-05
0.125682 1.380176e-05
0.125932 1.395513e-05
0.126182 1.410215e-05
0.126432 1.424276e-05
0.126682 1.437691e-05
0.126932 1.450457e-05
0.127182 1.462567e-05
0.127432 1.474019e-05
0.127682 1.484808e-05
0.127932 1.494930e-05
0.128182 1.504384e-05
0.128432 1.513164e-05
0.128682 1.521270e-05
0.128932 1.528699e-05
0.129182 1.535448e-05
0.129432 1.541516e-05
0.129682 1.546901e-05
0.129932 1.551603e-05
0.130182 1.555620e-05
0.130432 1.558952e-05
0.130682 1.561599e-05
0.130932 1.563561e-05
0.131182 1.564839e-05
0.131432 1.565432e-05
0.131682 1.565342e-05
0.131932 1.564571e-05
0.132182 1.563120e-05
0.132432 1.560990e-05
0.132682 1.558184e-05
0.132932 1.554705e-05
0.133182 1.550555e-05
0.133432 1.545737e-05
0.133682 1.540255e-05
0.133932 1.534112e-05
0.134182 1.527312e-05
0.134432 1.519860e-05
0.134682 1.511760e-05
0.134932 1.503016e-05
0.135182 1.493633e-05
0.135432 1.483618e-05
0.135682 1.472975e-05
0.135932 1.461710e-05
0.136182 1.449830e-05
0.136432 1.437340e-05
0.136682 1.424248e-05
0.136932 1.410560e-05
0.137182 1.396283e-05
0.137432 1.381425e-05
0.137682 1.365993e-05
0.137932 1.349995e-05
0.138182 1.333439e-05
0.138432 1.316334e-05
0.138682 1.298687e-05
0.138932 1.280508e-05
0.139182 1.261806e-05
0.139432 1.242590e-05
0.139682 1.222868e-05
0.139932 1.202652e-05
0.140182 1.181950e-05
0.140432 1.160772e-05
0.140682 1.139129e-05
0.140932 1.117031e-05
0.141182 1.094488e-05
0.141432 1.071512e-05
0.141682 1.048112e-05
0.141932 1.024301e-05
0.142182 1.000089e-05
0.142432 9.754875e-06
0.142682 9.505082e-06
0.142932 9.251626e-06
0.143182 8.994625e-06
0.143432 8.734198e-06
0.143682 8.470466e-06
0.143932 8.203550e-06
0.144182 7.933573e-06
0.144432 7.660658e-06
0.144682 7.384931e-06
0.144932 7.106517e-06
0.145182 6.825544e-06
0.145432 6.542138e-06
0.145682 6.256429e-06
0.145932 5.968546e-06
0.146182 5.678618e-06
0.146432 5.386777e-06
0.146682 5.093152e-06
0.146932 4.797877e-06
0.147182 4.501084e-06
0.147432 4.202904e-06
0.147682 3.903471e-06
0.147932 3.602918e-06
0.148182 3.301379e-06
0.148432 2.998988e-06
0.148682 2.695877e-06
0.148932 2.392181e-06
0.149182 2.088034e-06
0.149432 1.783569e-06
0.149682 1.478921e-06
0.149932 1.174222e-06
0.150182 8.696060e-07
0.150432 5.652059e-07
0.150682 2.611542e-07
0.150932 -4.241695e-08
0.151182 -3.453757e-07
0.151432 -6.475909e-07
0.151682 -9.489319e-07
0.151932 -1.249269e-06
0.152182 -1.548472e-06
0.152432 -1.846413e-06
0.152682 -2.142965e-06
0.152932 -2.437999e-06
0.153182 -2.731391e-06
0.153432 -3.023015e-06
0.153682 -3.312747e-06
0.153932 -3.600464e-06
0.154182 -3.886044e-06
0.154432 -4.169367e-06
0.154682 -4.450313e-06
0.154932 -4.728763e-06
0.155182 -5.004602e-06
0.155432 -5.277713e-06
0.155682 -5.547982e-06
0.155932 -5.815297e-06
0.156182 -6.079546e-06
0.156432 -6.340620e-06
0.156682 -6.598411e-06
0.156932 -6.852812e-06
0.157182 -7.103718e-06
0.157432 -7.351028e-06
0.157682 -7.594639e-06
0.157932 -7.834451e-06
0.158182 -8.070369e-06
0.158432 -8.302295e-06
0.158682 -8.530136e-06
0.158932 -8.753801e-06
0.159182 -8.973199e-06
0.159432 -9.188242e-06
0.159682 -9.398846e-06
0.159932 -9.604926e-06
0.160182 -9.806401e-06
0.160432 -1.000319e-05
0.160682 -1.019522e-05
0.160932 -1.038241e-05
0.161182 -1.056470e-05
0.161432 -1.074200e-05
0.161682 -1.091426e-05
0.161932 -1.108140e-05
0.162182 -1.124336e-05
0.162432 -1.140009e-05
0.162682 -1.155153e-05
0.162932 -1.169760e-05
0.163182 -1.183828e-05
0.163432 -1.197349e-05
0.163682 -1.210320e-05
0.163932 -1.222736e-05
0.164182 -1.234592e-05
0.164432 -1.245884e-05
0.164682 -1.256608e-05
0.164932 -1.266762e-05
0.165182 -1.276340e-05
0.165432 -1.285341e-05
0.165682 -1.293761e-05
0.165932 -1.301597e-05
0.166182 -1.308849e-05
0.166432 -1.315512e-05
0.166682 -1.321586e-05
0.166932 -1.327069e-05
0.167182 -1.331960e-05
0.167432 -1.336257e-05
0.167682 -1.339960e-05
0.167932 -1.343068e-05
0.168182 -1.345581e-05
0.168432 -1.347500e-05
0.168682 -1.348823e-05
0.168932 -1.349553e-05
0.169182 -1.349688e-05
0.169432 -1.349232e-05
0.169682 -1.348184e-05
0.169932 -1.346547e-05
0.170182 -1.344322e-05
0.170432 -1.341511e-05
0.170682 -1.338117e-05
0.170932 -1.334142e-05
0.171182 -1.329588e-05
0.171432 -1.324460e-05
0.171682 -1.318759e-05
0.171932 -1.312490e-05
0.172182 -1.305657e-05
0.172432 -1.298263e-05
0.172682 -1.290313e-05
0.172932 -1.281811e-05
0.173182 -1.272761e-05
0.173432 -1.263170e-05
0.173682 -1.253041e-05
0.173932 -1.242380e-05
0.174182 -1.231193e-05
0.174432 -1.219486e-05
0.174682 -1.207265e-05
0.174932 -1.194535e-05
0.175182 -1.181304e-05
0.175432 -1.167578e-05
0.175682 -1.153364e-05
0.175932 -1.138669e-05
0.176182 -1.123499e-05
0.176432 -1.107864e-05
0.176682 -1.091769e-05
0.176932 -1.075224e-05
0.177182 -1.058236e-05
0.177432 -1.040812e-05
0.177682 -1.022963e-05
0.177932 -1.004695e-05
0.178182 -9.860179e-06
0.178432 -9.669405e-06
0.178682 -9.474716e-06
0.178932 -9.276203e-06
0.179182 -9.073960e-06
0.179432 -8.868080e-06
0.179682 -8.658661e-06
0.179932 -8.445798e-06
0.180182 -8.229590e-06
0.180432 -8.010137e-06
0.180682 -7.787540e-06
0.180932 -7.561900e-06
0.181182 -7.333321e-06
0.181432 -7.101908e-06
0.181682 -6.867764e-06
0.181932 -6.630998e-06
0.182182 -6.391715e-06
0.182432 -6.150024e-06
0.182682 -5.906033e-06
0.182932 -5.659854e-06
0.183182 -5.411595e-06
0.183432 -5.161368e-06
0.183682 -4.909285e-06
0.183932 -4.655458e-06
0.184182 -4.400000e-06
0.184432 -4.143025e-06
0.184682 -3.884646e-06
0.184932 -3.624977e-06
0.185182 -3.364134e-06
0.185432 -3.102230e-06
0.185682 -2.839381e-06
0.185932 -2.575703e-06
0.186182 -2.311310e-06
0.186432 -2.046318e-06
0.186682 -1.780843e-06
0.186932 -1.515000e-06
0.187182 -1.248905e-06