-0.138818 1.410453e-04
-0.138568 1.433484e-04
-0.138318 1.455768e-04
-0.138068 1.477295e-04
-0.137818 1.498056e-04
-0.137568 1.518043e-04
-0.137318 1.537246e-04
-0.137068 1.555657e-04
-0.136818 1.573269e-04
-0.136568 1.590074e-04
-0.136318 1.606065e-04
-0.136068 1.621236e-04
-0.135818 1.635580e-04
-0.135568 1.649093e-04
-0.135318 1.661768e-04
-0.135068 1.673600e-04
-0.134818 1.684587e-04
-0.134568 1.694722e-04
-0.134318 1.704004e-04
-0.134068 1.712428e-04
-0.133818 1.719993e-04
-0.133568 1.726695e-04
-0.133318 1.732534e-04
-0.133068 1.737507e-04
-0.132818 1.741614e-04
-0.132568 1.744854e-04
-0.132318 1.747227e-04
-0.132068 1.748734e-04
-0.131818 1.749375e-04
-0.131568 1.749152e-04
-0.131318 1.748065e-04
-0.131068 1.746118e-04
-0.130818 1.743313e-04
-0.130568 1.739652e-04
-0.130318 1.735139e-04
-0.130068 1.729778e-04
-0.129818 1.723573e-04
-0.129568 1.716528e-04
-0.129318 1.708649e-04
-0.129068 1.699941e-04
-0.128818 1.690409e-04
-0.128568 1.680060e-04
-0.128318 1.668900e-04
-0.128068 1.656937e-04
-0.127818 1.644178e-04
-0.127568 1.630630e-04
-0.127318 1.616302e-04
-0.127068 1.601203e-04
-0.126818 1.585340e-04
-0.126568 1.568724e-04
-0.126318 1.551363e-04
-0.126068 1.533269e-04
-0.125818 1.514450e-04
-0.125568 1.494919e-04
-0.125318 1.474685e-04
-0.125068 1.453760e-04
-0.124818 1.432156e-04
-0.124568 1.409885e-04
-0.124318 1.386958e-04
-0.124068 1.363389e-04
-0.123818 1.339190e-04
-0.123568 1.314375e-04
-0.123318 1.288957e-04
-0.123068 1.262949e-04
-0.122818 1.236365e-04
-0.122568 1.209221e-04
-0.122318 1.181529e-04
-0.122068 1.153306e-04
-0.121818 1.124566e-04
-0.121568 1.095323e-04
-0.121318 1.065594e-04
-0.121068 1.035395e-04
-0.120818 1.004740e-04
-0.120568 9.736464e-05
-0.120318 9.421299e-05
-0.120068 9.102070e-05
-0.119818 8.778943e-05
-0.119568 8.452085e-05
-0.119318 8.121665e-05
-0.119068 7.787852e-05
-0.118818 7.450820e-05
-0.118568 7.110740e-05
-0.118318 6.767788e-05
-0.118068 6.422137e-05
-0.117818 6.073964e-05
-0.117568 5.723447e-05
-0.117318 5.370763e-05
-0.117068 5.016092e-05
-0.116818 4.659612e-05
-0.116568 4.301503e-05
-0.116318 3.941946e-05
-0.116068 3.581122e-05
-0.115818 3.219211e-05
-0.115568 2.856396e-05
-0.115318 2.492857e-05
-0.115068 2.128776e-05
-0.114818 1.764333e-05
-0.114568 1.399712e-05
-0.114318 1.035091e-05
-0.114068 6.706520e-06
-0.113818 3.065750e-06
-0.113568 -5.696050e-07
-0.113318 -4.197754e-06
-0.113068 -7.816915e-06
-0.112818 -1.142531e-05
-0.112568 -1.502118e-05
-0.112318 -1.860276e-05
-0.112068 -2.216830e-05
-0.111818 -2.571608e-05
-0.111568 -2.924436e-05
-0.111318 -3.275144e-05
-0.111068 -3.623562e-05
-0.110818 -3.969522e-05
-0.110568 -4.312857e-05
-0.110318 -4.653403e-05
-0.110068 -4.990995e-05
-0.109818 -5.325472e-05
-0.109568 -5.656676e-05
-0.109318 -5.984447e-05
-0.109068 -6.308630e-05
-0.108818 -6.629072e-05
-0.108568 -6.945620e-05
-0.108318 -7.258126e-05
-0.108068 -7.566443e-05
-0.107818 -7.870425e-05
-0.107568 -8.169932e-05
-0.107318 -8.464822e-05
-0.107068 -8.754959e-05
-0.106818 -9.040208e-05
-0.106568 -9.320437e-05
-0.106318 -9.595517e-05
-0.106068 -9.865323e-05
-0.105818 -1.012973e-04
-0.105568 -1.038862e-04
-0.105318 -1.064187e-04
-0.105068 -1.088937e-04
-0.104818 -1.113100e-04
-0.104568 -1.136667e-04
-0.104318 -1.159626e-04
-0.104068 -1.181967e-04
-0.103818 -1.203680e-04
-0.103568 -1.224756e-04
-0.103318 -1.245186e-04
-0.103068 -1.264960e-04
-0.102818 -1.284071e-04
-0.102568 -1.302509e-04
-0.102318 -1.320268e-04
-0.102068 -1.337339e-04
-0.101818 -1.353716e-04
-0.101568 -1.369392e-04
-0.101318 -1.384359e-04
-0.101068 -1.398614e-04
-0.100818 -1.412149e-04
-0.100568 -1.424959e-04
-0.100318 -1.437040e-04
-0.100068 -1.448386e-04
-0.099818 -1.458994e-04
-0.099568 -1.468860e-04
-0.099318 -1.477980e-04
-0.099068 -1.486352e-04
-0.098818 -1.493972e-04
-0.098568 -1.500839e-04
-0.098318 -1.506950e-04
-0.098068 -1.512304e-04
-0.097818 -1.516899e-04
-0.097568 -1.520735e-04
-0.097318 -1.523812e-04
-0.097068 -1.526129e-04
-0.096818 -1.527687e-04
-0.096568 -1.528486e-04
-0.096318 -1.528527e-04
-0.096068 -1.527813e-04
-0.095818 -1.526344e-04
-0.095568 -1.524124e-04
-0.095318 -1.521154e-04
-0.095068 -1.517437e-04
-0.094818 -1.512978e-04
-0.094568 -1.507778e-04
-0.094318 -1.501843e-04
-0.094068 -1.495177e-04
-0.093818 -1.487785e-04
-0.093568 -1.479671e-04
-0.093318 -1.470842e-04
-0.093068 -1.461302e-04
-0.092818 -1.451058e-04
-0.092568 -1.440117e-04
-0.092318 -1.428485e-04
-0.092068 -1.416169e-04
-0.091818 -1.403177e-04
-0.091568 -1.389516e-04
-0.091318 -1.375195e-04
-0.091068 -1.360222e-04
-0.090818 -1.344606e-04
-0.090568 -1.328356e-04
-0.090318 -1.311480e-04
-0.090068 -1.293989e-04
-0.089818 -1.275893e-04
-0.089568 -1.257201e-04
-0.089318 -1.237924e-04
-0.089068 -1.218073e-04
-0.088818 -1.197659e-04
-0.088568 -1.176692e-04
-0.088318 -1.155185e-04
-0.088068 -1.133149e-04
-0.087818 -1.110596e-04
-0.087568 -1.087539e-04
-0.087318 -1.063989e-04
-0.087068 -1.039959e-04
-0.086818 -1.015462e-04
-0.086568 -9.905120e-05
-0.086318 -9.651210e-05
-0.086068 -9.393030e-05
-0.085818 -9.130715e-05
-0.085568 -8.864404e-05
-0.085318 -8.594236e-05
-0.085068 -8.320353e-05
-0.084818 -8.042897e-05
-0.084568 -7.762014e-05
-0.084318 -7.477849e-05
-0.084068 -7.190550e-05
-0.083818 -6.900264e-05
-0.083568 -6.607143e-05
-0.083318 -6.311336e-05
-0.083068 -6.012996e-05
-0.082818 -5.712275e-05
-0.082568 -5.409327e-05
-0.082318 -5.104306e-05
-0.082068 -4.797369e-05
-0.081818 -4.488670e-05
-0.081568 -4.178367e-05
-0.081318 -3.866616e-05
-0.081068 -3.553574e-05
-0.080818 -3.239400e-05
-0.080568 -2.924251e-05
-0.080318 -2.608286e-05
-0.080068 -2.291662e-05
-0.079818 -1.974538e-05
-0.079568 -1.657072e-05
-0.079318 -1.339423e-05
-0.079068 -1.021747e-05
-0.078818 -7.042032e-06
-0.078568 -3.869479e-06
-0.078318 -7.013811e-07
-0.078068 2.460700e-06
-0.077818 5.615209e-06
-0.077568 8.760596e-06
-0.077318 1.189532e-05
-0.077068 1.501785e-05
-0.076818 1.812665e-05
-0.076568 2.122022e-05
-0.076318 2.429705e-05
-0.076068 2.735564e-05
-0.075818 3.039452e-05
-0.075568 3.341222e-05
-0.075318 3.640728e-05
-0.075068 3.937826e-05
-0.074818 4.232373e-05
-0.074568 4.524229e-05
-0.074318 4.813254e-05
-0.074068 5.099309e-05
-0.073818 5.382260e-05
-0.073568 5.661971e-05
-0.073318 5.938311e-05
-0.073068 6.211149e-05
-0.072818 6.480355e-05
-0.072568 6.745805e-05
-0.072318 7.007373e-05
-0.072068 7.264938e-05
-0.071818 7.518379e-05
-0.071568 7.767578e-05
-0.071318 8.012421e-05
-0.071068 8.252794e-05
-0.070818 8.488587e-05
-0.070568 8.719691e-05
-0.070318 8.946002e-05
-0.070068 9.167415e-05
-0.069818 9.383832e-05
-0.069568 9.595154e-05
-0.069318 9.801286e-05
-0.069068 1.000214e-04
-0.068818 1.019761e-04
-0.068568 1.038763e-04
-0.068318 1.057211e-04
-0.068068 1.075097e-04
-0.067818 1.092413e-04
-0.067568 1.109151e-04
-0.067318 1.125304e-04
-0.067068 1.140866e-04
-0.066818 1.155829e-04
-0.066568 1.170188e-04
-0.066318 1.183937e-04
-0.066068 1.197069e-04
-0.065818 1.209581e-04
-0.065568 1.221465e-04
-0.065318 1.232719e-04
-0.065068 1.243337e-04
-0.064818 1.253316e-04
-0.064568 1.262651e-04
-0.064318 1.271340e-04
-0.064068 1.279379e-04
-0.063818 1.286766e-04
-0.063568 1.293497e-04
-0.063318 1.299572e-04
-0.063068 1.304988e-04
-0.062818 1.309744e-04
-0.062568 1.313839e-04
-0.062318 1.317271e-04
-0.062068 1.320042e-04
-0.061818 1.322149e-04
-0.061568 1.323594e-04
-0.061318 1.324378e-04
-0.061068 1.324500e-04
-0.060818 1.323963e-04
-0.060568 1.322768e-04
-0.060318 1.320916e-04
-0.060068 1.318410e-04
-0.059818 1.315252e-04
-0.059568 1.311445e-04
-0.059318 1.306993e-04
-0.059068 1.301898e-04
-0.058818 1.296165e-04
-0.058568 1.289797e-04
-0.058318 1.282798e-04
-0.058068 1.275175e-04
-0.057818 1.266930e-04
-0.057568 1.258071e-04
-0.057318 1.248601e-04
-0.057068 1.238528e-04
-0.056818 1.227857e-04
-0.056568 1.216594e-04
-0.056318 1.204747e-04
-0.056068 1.192322e-04
-0.055818 1.179327e-04
-0.055568 1.165769e-04
-0.055318 1.151655e-04
-0.055068 1.136995e-04
-0.054818 1.121796e-04
-0.054568 1.106067e-04
-0.054318 1.089816e-04
-0.054068 1.073053e-04
-0.053818 1.055786e-04
-0.053568 1.038026e-04
-0.053318 1.019783e-04
-0.053068 1.001065e-04
-0.052818 9.818837e-05
-0.052568 9.622490e-05
-0.052318 9.421715e-05
-0.052068 9.216620e-05
-0.051818 9.007315e-05
-0.051568 8.793912e-05
-0.051318 8.576525e-05
-0.051068 8.355268e-05
-0.050818 8.130258e-05
-0.050568 7.901615e-05
-0.050318 7.669458e-05
-0.050068 7.433909e-05
-0.049818 7.195091e-05
-0.049568 6.953129e-05
-0.049318 6.708149e-05
-0.049068 6.460278e-05
-0.048818 6.209644e-05
-0.048568 5.956377e-05
-0.048318 5.700607e-05
-0.048068 5.442466e-05
-0.047818 5.182086e-05
-0.047568 4.919601e-05
-0.047318 4.655145e-05
-0.047068 4.388853e-05
-0.046818 4.120860e-05
-0.046568 3.851302e-05
-0.046318 3.580317e-05
-0.046068 3.308041e-05
-0.045818 3.034611e-05
-0.045568 2.760166e-05
-0.045318 2.484844e-05
-0.045068 2.208783e-05
-0.044818 1.932121e-05
-0.044568 1.654997e-05
-0.044318 1.377550e-05
-0.044068 1.099917e-05
-0.043818 8.222368e-06
-0.043568 5.446474e-06
-0.043318 2.672864e-06
-0.043068 -9.708852e-08
-0.042818 -2.862015e-06
-0.042568 -5.620551e-06
-0.042318 -8.371338e-06
-0.042068 -1.111303e-05
-0.041818 -1.384427e-05
-0.041568 -1.656372e-05
-0.041318 -1.927007e-05
-0.041068 -2.196198e-05
-0.040818 -2.463815e-05
-0.040568 -2.729727e-05
-0.040318 -2.993806e-05
-0.040068 -3.255923e-05
-0.039818 -3.515952e-05
-0.039568 -3.773768e-05
-0.039318 -4.029245e-05
-0.039068 -4.282262e-05
-0.038818 -4.532698e-05
-0.038568 -4.780431e-05
-0.038318 -5.025345e-05
-0.038068 -5.267322e-05
-0.037818 -5.506248e-05
-0.037568 -5.742008e-05
-0.037318 -5.974492e-05
-0.037068 -6.203589e-05
-0.036818 -6.429192e-05
-0.036568 -6.651195e-05
-0.036318 -6.869494e-05
-0.036068 -7.083986e-05
-0.035818 -7.294572e-05
-0.035568 -7.501154e-05
-0.035318 -7.703637e-05
-0.035068 -7.901926e-05
-0.034818 -8.095930e-05
-0.034568 -8.285561e-05
-0.034318 -8.470731e-05
-0.034068 -8.651357e-05
-0.033818 -8.827357e-05
-0.033568 -8.998650e-05
-0.033318 -9.165160e-05
-0.033068 -9.326812e-05
-0.032818 -9.483535e-05
-0.032568 -9.635258e-05
-0.032318 -9.781915e-05
-0.032068 -9.923441e-05
-0.031818 -1.005977e-04
-0.031568 -1.019086e-04
-0.031318 -1.031663e-04
-0.031068 -1.043705e-04
-0.030818 -1.055205e-04
-0.030568 -1.066159e-04
-0.030318 -1.076563e-04
-0.030068 -1.086412e-04
-0.029818 -1.095702e-04
-0.029568 -1.104429e-04
-0.029318 -1.112591e-04
-0.029068 -1.120184e-04
-0.028818 -1.127205e-04
-0.028568 -1.133652e-04
-0.028318 -1.139522e-04
-0.028068 -1.144813e-04
-0.027818 -1.149524e-04
-0.027568 -1.153654e-04
-0.027318 -1.157200e-04
-0.027068 -1.160164e-04
-0.026818 -1.162542e-04
-0.026568 -1.164337e-04
-0.026318 -1.165547e-04
-0.026068 -1.166174e-04
-0.025818 -1.166217e-04
-0.025568 -1.165677e-04
-0.025318 -1.164556e-04
-0.025068 -1.162856e-04
-0.024818 -1.160577e-04
-0.024568 -1.157723e-04
-0.024318 -1.154294e-04
-0.024068 -1.150295e-04
-0.023818 -1.145728e-04
-0.023568 -1.140596e-04
-0.023318 -1.134902e-04
-0.023068 -1.128650e-04
-0.022818 -1.121845e-04
-0.022568 -1.114489e-04
-0.022318 -1.106589e-04
-0.022068 -1.098148e-04
-0.021818 -1.089172e-04
-0.021568 -1.079666e-04
-0.021318 -1.069636e-04
-0.021068 -1.059086e-04
-0.020818 -1.048024e-04
-0.020568 -1.036455e-04
-0.020318 -1.024387e-04
-0.020068 -1.011825e-04
-0.019818 -9.987770e-05
-0.019568 -9.852499e-05
-0.019318 -9.712512e-05
-0.019068 -9.567885e-05
-0.018818 -9.418698e-05
-0.018568 -9.265030e-05
-0.018318 -9.106965e-05
-0.018068 -8.944588e-05
-0.017818 -8.777985e-05
-0.017568 -8.607245e-05
-0.017318 -8.432459e-05
-0.017068 -8.253720e-05
-0.016818 -8.071122e-05
-0.016568 -7.884760e-05
-0.016318 -7.694734e-05
-0.016068 -7.501142e-05
-0.015818 -7.304085e-05
-0.015568 -7.103666e-05
-0.015318 -6.899989e-05
-0.015068 -6.693160e-05
-0.014818 -6.483286e-05
-0.014568 -6.270474e-05
-0.014318 -6.054835e-05
-0.014068 -5.836479e-05
-0.013818 -5.615519e-05
-0.013568 -5.392066e-05
-0.013318 -5.166236e-05
-0.013068 -4.938143e-05
-0.012818 -4.707903e-05
-0.012568 -4.475634e-05
-0.012318 -4.241453e-05
-0.012068 -4.005479e-05
-0.011818 -3.767830e-05
-0.011568 -3.528628e-05
-0.011318 -3.287991e-05
-0.011068 -3.046041e-05
-0.010818 -2.802900e-05
-0.010568 -2.558689e-05
-0.010318 -2.313530e-05
-0.010068 -2.067546e-05
-0.009818 -1.820860e-05
-0.009568 -1.573594e-05
-0.009318 -1.325872e-05
-0.009068 -1.077816e-05
-0.008818 -8.295494e-06
-0.008568 -5.811950e-06
-0.008318 -3.328755e-06
-0.008068 -8.471348e-07
-0.007818 1.631687e-06
-0.007568 4.106490e-06
-0.007318 6.576060e-06
-0.007068 9.039183e-06
-0.006818 1.149465e-05
-0.006568 1.394127e-05
-0.006318 1.637784e-05
-0.006068 1.880317e-05
-0.005818 2.121607e-05
-0.005568 2.361539e-05
-0.005318 2.599995e-05
-0.005068 2.836859e-05
-0.004818 3.072017e-05
-0.004568 3.305355e-05
-0.004318 3.536760e-05
-0.004068 3.766122e-05
-0.003818 3.993329e-05
-0.003568 4.218272e-05
-0.003318 4.440844e-05
-0.003068 4.660938e-05
-0.002818 4.878448e-05
-0.002568 5.093271e-05
-0.002318 5.305305e-05
-0.002068 5.514448e-05
-0.001818 5.720602e-05
-0.001568 5.923668e-05
-0.001318 6.123551e-05
-0.001068 6.320156e-05
-0.000818 6.513390e-05
-0.000568 6.703164e-05
-0.000318 6.889387e-05
-0.000068 7.071973e-05
0.000182 7.250836e-05
0.000432 7.425893e-05
0.000682 7.597063e-05
0.000932 7.764265e-05
0.001182 7.927424e-05
0.001432 8.086464e-05
0.001682 8.241311e-05
0.001932 8.391895e-05
0.002182 8.538147e-05
0.002432 8.680001e-05
0.002682 8.817391e-05
0.002932 8.950256e-05
0.003182 9.078537e-05
0.003432 9.202175e-05
0.003682 9.321116e-05
0.003932 9.435307e-05
0.004182 9.544697e-05
0.004432 9.649239e-05
0.004682 9.748887e-05
0.004932 9.843598e-05
0.005182 9.933332e-05
0.005432 1.001805e-04
0.005682 1.009772e-04
0.005932 1.017230e-04
0.006182 1.024177e-04
0.006432 1.030609e-04
0.006682 1.036525e-04
0.006932 1.041921e-04
0.007182 1.046796e-04
0.007432 1.051149e-04
0.007682 1.054976e-04
0.007932 1.058278e-04
0.008182 1.061054e-04
0.008432 1.063301e-04
0.008682 1.065021e-04
0.008932 1.066213e-04
0.009182 1.066876e-04
0.009432 1.067011e-04
0.009682 1.066619e-04
0.009932 1.065700e-04
0.010182 1.064256e-04
0.010432 1.062287e-04
0.010682 1.059796e-04
0.010932 1.056784e-04
0.011182 1.053253e-04
0.011432 1.049205e-04
0.011682 1.044643e-04
0.011932 1.039571e-04
0.012182 1.033990e-04
0.012432 1.027904e-04
0.012682 1.021317e-04
0.012932 1.014232e-04
0.013182 1.006654e-04
0.013432 9.985867e-05
0.013682 9.900345e-05
0.013932 9.810022e-05
0.014182 9.714947e-05
0.014432 9.615173e-05
0.014682 9.510752e-05
0.014932 9.401742e-05
0.015182 9.288199e-05
0.015432 9.170185e-05
0.015682 9.047761e-05
0.015932 8.920993e-05
0.016182 8.789947e-05
0.016432 8.654691e-05
0.016682 8.515295e-05
0.016932 8.371833e-05
0.017182 8.224378e-05
0.017432 8.073007e-05
0.017682 7.917797e-05
0.017932 7.758828e-05
0.018182 7.596182e-05
0.018432 7.429941e-05
0.018682 7.260191e-05
0.018932 7.087018e-05
0.019182 6.910509e-05
0.019432 6.730754e-05
0.019682 6.547845e-05
0.019932 6.361873e-05
0.020182 6.172932e-05
0.020432 5.981117e-05
0.020682 5.786524e-05
0.020932 5.589252e-05
0.021182 5.389398e-05
0.021432 5.187062e-05
0.021682 4.982346e-05
0.021932 4.775352e-05
0.022182 4.566182e-05
0.022432 4.354941e-05
0.022682 4.141732e-05
0.022932 3.926663e-05
0.023182 3.709838e-05
0.023432 3.491366e-05
0.023682 3.271355e-05
0.023932 3.049911e-05
0.024182 2.827146e-05
0.024432 2.603167e-05
0.024682 2.378086e-05
0.024932 2.152012e-05
0.025182 1.925057e-05
0.025432 1.697331e-05
0.025682 1.468945e-05
0.025932 1.240012e-05
0.026182 1.010642e-05
0.026432 7.809485e-06
0.026682 5.510419e-06
0.026932 3.210344e-06
0.027182 9.103761e-07
0.027432 -1.388369e-06
0.027682 -3.684777e-06
0.027932 -5.977736e-06
0.028182 -8.266139e-06
0.028432 -1.054888e-05
0.028682 -1.282486e-05
0.028932 -1.509298e-05
0.029182 -1.735214e-05
0.029432 -1.960127e-05
0.029682 -2.183928e-05
0.029932 -2.406509e-05
0.030182 -2.627765e-05
0.030432 -2.847589e-05
0.030682 -3.065876e-05
0.030932 -3.282521e-05
0.031182 -3.497422e-05
0.031432 -3.710476e-05
0.031682 -3.921581e-05
0.031932 -4.130637e-05
0.032182 -4.337545e-05
0.032432 -4.542206e-05
0.032682 -4.744524e-05
0.032932 -4.944403e-05
0.033182 -5.141748e-05
0.033432 -5.336466e-05
0.033682 -5.528465e-05
0.033932 -5.717656e-05
0.034182 -5.903948e-05
0.034432 -6.087254e-05
0.034682 -6.267489e-05
0.034932 -6.444567e-05
0.035182 -6.618407e-05
0.035432 -6.788927e-05
0.035682 -6.956047e-05
0.035932 -7.119690e-05
0.036182 -7.279780e-05
0.036432 -7.436241e-05
0.036682 -7.589003e-05
0.036932 -7.737994e-05
0.037182 -7.883145e-05
0.037432 -8.024390e-05
0.037682 -8.161664e-05
0.037932 -8.294904e-05
0.038182 -8.424049e-05
0.038432 -8.549040e-05
0.038682 -8.669820e-05
0.038932 -8.786334e-05
0.039182 -8.898530e-05
0.039432 -9.006357e-05
0.039682 -9.109767e-05
0.039932 -9.208713e-05
0.040182 -9.303152e-05
0.040432 -9.393041e-05
0.040682 -9.478341e-05
0.040932 -9.559014e-05
0.041182 -9.635025e-05
0.041432 -9.706341e-05
0.041682 -9.772932e-05
0.041932 -9.834768e-05
0.042182 -9.891825e-05
0.042432 -9.944078e-05
0.042682 -9.991506e-05
0.042932 -1.003409e-04
0.043182 -1.007181e-04
0.043432 -1.010466e-04
0.043682 -1.013262e-04
0.043932 -1.015568e-04
0.044182 -1.017383e-04
0.044432 -1.018708e-04
0.044682 -1.019541e-04
0.044932 -1.019883e-04
0.045182 -1.019734e-04
0.045432 -1.019094e-04
0.045682 -1.017964e-04
0.045932 -1.016345e-04
0.046182 -1.014238e-04
0.046432 -1.011645e-04
0.046682 -1.008566e-04
0.046932 -1.005004e-04
0.047182 -1.000961e-04
0.047432 -9.964383e-05
0.047682 -9.914396e-05
0.047932 -9.859672e-05
0.048182 -9.800241e-05
0.048432 -9.736133e-05
0.048682 -9.667383e-05
0.048932 -9.594027e-05
0.049182 -9.516103e-05
0.049432 -9.433651e-05
0.049682 -9.346715e-05
0.049932 -9.255337e-05
0.050182 -9.159566e-05
0.050432 -9.059449e-05
0.050682 -8.955037e-05
0.050932 -8.846383e-05
0.051182 -8.733542e-05
0.051432 -8.616570e-05
0.051682 -8.495526e-05
0.051932 -8.370470e-05
0.052182 -8.241464e-05
0.052432 -8.108573e-05
0.052682 -7.971861e-05
0.052932 -7.831398e-05
0.053182 -7.687251e-05
0.053432 -7.539492e-05
0.053682 -7.388194e-05
0.053932 -7.233430e-05
0.054182 -7.075278e-05
0.054432 -6.913813e-05
0.054682 -6.749115e-05
0.054932 -6.581265e-05
0.055182 -6.410343e-05
0.055432 -6.236433e-05
0.055682 -6.059620e-05
0.055932 -5.879990e-05
0.056182 -5.697628e-05
0.056432 -5.512625e-05
0.056682 -5.325068e-05
0.056932 -5.135049e-05
0.057182 -4.942659e-05
0.057432 -4.747991e-05
0.057682 -4.551139e-05
0.057932 -4.352196e-05
0.058182 -4.151260e-05
0.058432 -3.948426e-05
0.058682 -3.743791e-05
0.058932 -3.537454e-05
0.059182 -3.329513e-05
0.059432 -3.120067e-05
0.059682 -2.909217e-05
0.059932 -2.697063e-05
0.060182 -2.483706e-05
0.060432 -2.269248e-05
0.060682 -2.053791e-05
0.060932 -1.837437e-05
0.061182 -1.620290e-05
0.061432 -1.402451e-05
0.061682 -1.184025e-05
0.061932 -9.651153e-06
0.062182 -7.458249e-06
0.062432 -5.262578e-06
0.062682 -3.065178e-06
0.062932 -8.670873e-07
0.063182 1.330657e-06
0.063432 3.527019e-06
0.063682 5.720964e-06
0.063932 7.911459e-06
0.064182 1.009747e-05
0.064432 1.227798e-05
0.064682 1.445195e-05
0.064932 1.661838e-05
0.065182 1.877623e-05
0.065432 2.092451e-05
0.065682 2.306220e-05
0.065932 2.518830e-05
0.066182 2.730183e-05
0.066432 2.940180e-05
0.066682 3.148721e-05
0.066932 3.355712e-05
0.067182 3.561054e-05
0.067432 3.764652e-05
0.067682 3.966412e-05
0.067932 4.166240e-05
0.068182 4.364042e-05
0.068432 4.559729e-05
0.068682 4.753207e-05
0.068932 4.944389e-05
0.069182 5.133186e-05
0.069432 5.319510e-05
0.069682 5.503275e-05
0.069932 5.684397e-05
0.070182 5.862793e-05
0.070432 6.038379e-05
0.070682 6.211075e-05
0.070932 6.380803e-05
0.071182 6.547483e-05
0.071432 6.711041e-05
0.071682 6.871400e-05
0.071932 7.028487e-05
0.072182 7.182231e-05
0.072432 7.332562e-05
0.072682 7.479411e-05
0.072932 7.622711e-05
0.073182 7.762398e-05
0.073432 7.898407e-05
0.073682 8.030678e-05
0.073932 8.159150e-05
0.074182 8.283766e-05
0.074432 8.404468e-05
0.074682 8.521204e-05
0.074932 8.633921e-05
0.075182 8.742567e-05
0.075432 8.847096e-05
0.075682 8.947459e-05
0.075932 9.043613e-05
0.076182 9.135514e-05
0.076432 9.223123e-05
0.076682 9.306400e-05
0.076932 9.385309e-05
0.077182 9.459815e-05
0.077432 9.529887e-05
0.077682 9.595494e-05
0.077932 9.656607e-05
0.078182 9.713201e-05
0.078432 9.765251e-05
0.078682 9.812736e-05
0.078932 9.855635e-05
0.079182 9.893932e-05
0.079432 9.927611e-05
0.079682 9.956658e-05
0.079932 9.981063e-05
0.080182 1.000082e-04
0.080432 1.001591e-04
0.080682 1.002634e-04
0.080932 1.003211e-04
0.081182 1.003321e-04
0.081432 1.002965e-04
0.081682 1.002143e-04
0.081932 1.000855e-04
0.082182 9.991029e-05
0.082432 9.968873e-05
0.082682 9.942095e-05
0.082932 9.910710e-05
0.083182 9.874734e-05
0.083432 9.834186e-05
0.083682 9.789089e-05
0.083932 9.739464e-05
0.084182 9.685337e-05
0.084432 9.626735e-05
0.084682 9.563689e-05
0.084932 9.496228e-05
0.085182 9.424387e-05
0.085432 9.348201e-05
0.085682 9.267708e-05
0.085932 9.182946e-05
0.086182 9.093958e-05
0.086432 9.000785e-05
0.086682 8.903475e-05
0.086932 8.802073e-05
0.087182 8.696628e-05
0.087432 8.587192e-05
0.087682 8.473816e-05
0.087932 8.356555e-05
0.088182 8.235465e-05
0.088432 8.110604e-05
0.088682 7.982031e-05
0.088932 7.849808e-05
0.089182 7.713996e-05
0.089432 7.574661e-05
0.089682 7.431869e-05
0.089932 7.285687e-05
0.090182 7.136183e-05
0.090432 6.983429e-05
0.090682 6.827497e-05
0.090932 6.668459e-05
0.091182 6.506391e-05
0.091432 6.341368e-05
0.091682 6.173469e-05
0.091932 6.002771e-05
0.092182 5.829355e-05
0.092432 5.653301e-05
0.092682 5.474692e-05
0.092932 5.293611e-05
0.093182 5.110143e-05
0.093432 4.924373e-05
0.093682 4.736387e-05
0.093932 4.546274e-05
0.094182 4.354120e-05
0.094432 4.160016e-05
0.094682 3.964052e-05
0.094932 3.766318e-05
0.095182 3.566905e-05
0.095432 3.365907e-05
0.095682 3.163416e-05
0.095932 2.959525e-05
0.096182 2.754330e-05
0.096432 2.547923e-05
0.096682 2.340402e-05
0.096932 2.131860e-05
0.097182 1.922395e-05
0.097432 1.712102e-05
0.097682 1.501079e-05
0.097932 1.289421e-05
0.098182 1.077227e-05
0.098432 8.645936e-06
0.098682 6.516182e-06
0.098932 4.383984e-06
0.099182 2.250318e-06
0.099432 1.161601e-07
0.099682 -2.017514e-06
0.099932 -4.149730e-06
0.100182 -6.279514e-06
0.100432 -8.405895e-06
0.100682 -1.052790e-05
0.100932 -1.264458e-05
0.101182 -1.475494e-05
0.101432 -1.685805e-05
0.101682 -1.895294e-05
0.101932 -2.103866e-05
0.102182 -2.311426e-05
0.102432 -2.517881e-05
0.102682 -2.723136e-05
0.102932 -2.927099e-05
0.103182 -3.129678e-05
0.103432 -3.330781e-05
0.103682 -3.530316e-05
0.103932 -3.728194e-05
0.104182 -3.924326e-05
0.104432 -4.118624e-05
0.104682 -4.310999e-05
0.104932 -4.501365e-05
0.105182 -4.689637e-05
0.105432 -4.875729e-05
0.105682 -5.059559e-05
0.105932 -5.241044e-05
0.106182 -5.420103e-05
0.106432 -5.596655e-05
0.106682 -5.770621e-05
0.106932 -5.941924e-05
0.107182 -6.110488e-05
0.107432 -6.276237e-05
0.107682 -6.439096e-05
0.107932 -6.598995e-05
0.108182 -6.755861e-05
0.108432 -6.909625e-05
0.108682 -7.060219e-05
0.108932 -7.207577e-05
0.109182 -7.351632e-05
0.109432 -7.492321e-05
0.109682 -7.629582e-05
0.109932 -7.763355e-05
0.110182 -7.893581e-05
0.110432 -8.020202e-05
0.110682 -8.143163e-05
0.110932 -8.262411e-05
0.111182 -8.377892e-05
0.111432 -8.489558e-05
0.111682 -8.597358e-05
0.111932 -8.701246e-05
0.112182 -8.801178e-05
0.112432 -8.897110e-05
0.112682 -8.989000e-05
0.112932 -9.076809e-05
0.113182 -9.160500e-05
0.113432 -9.240037e-05
0.113682 -9.315385e-05
0.113932 -9.386514e-05
0.114182 -9.453392e-05
0.114432 -9.515992e-05
0.114682 -9.574289e-05
0.114932 -9.628256e-05
0.115182 -9.677874e-05
0.115432 -9.723121e-05
0.115682 -9.763978e-05
0.115932 -9.800431e-05
0.116182 -9.832465e-05
0.116432 -9.860067e-05
0.116682 -9.883228e-05
0.116932 -9.901939e-05
0.117182 -9.916194e-05
0.117432 -9.925988e-05
0.117682 -9.931321e-05
0.117932 -9.932191e-05
0.118182 -9.928601e-05
0.118432 -9.920554e-05
0.118682 -9.908056e-05
0.118932 -9.891116e-05
0.119182 -9.869743e-05
0.119432 -9.843949e-05
0.119682 -9.813748e-05
0.119932 -9.779156e-05
0.120182 -9.740190e-05
0.120432 -9.696871e-05
0.120682 -9.649219e-05
0.120932 -9.597260e-05
0.121182 -9.541017e-05
0.121432 -9.480520e-05
0.121682 -9.415796e-05
0.121932 -9.346878e-05
0.122182 -9.273799e-05
0.122432 -9.196593e-05
0.122682 -9.115297e-05
0.122932 -9.029949e-05
0.123182 -8.940591e-05
0.123432 -8.847265e-05
0.123682 -8.750014e-05
0.123932 -8.648883e-05
0.124182 -8.543921e-05
0.124432 -8.435176e-05
0.124682 -8.322699e-05
0.124932 -8.206543e-05
0.125182 -8.086761e-05
0.125432 -7.963408e-05
0.125682 -7.836543e-05
0.125932 -7.706223e-05
0.126182 -7.572508e-05
0.126432 -7.435461e-05
0.126682 -7.295144e-05
0.126932 -7.151622e-05
0.127182 -7.004961e-05
0.127432 -6.855228e-05
0.127682 -6.702491e-05
0.127932 -6.546820e-05
0.128182 -6.388287e-05
0.128432 -6.226963e-05
0.128682 -6.062923e-05
0.128932 -5.896241e-05
0.129182 -5.726992e-05
0.129432 -5.555254e-05
0.129682 -5.381105e-05
0.129932 -5.204623e-05
0.130182 -5.025889e-05
0.130432 -4.844984e-05
0.130682 -4.661989e-05
0.130932 -4.476986e-05
0.131182 -4.290061e-05
0.131432 -4.101296e-05
0.131682 -3.910778e-05
0.131932 -3.718591e-05
0.132182 -3.524823e-05
0.132432 -3.329560e-05
0.132682 -3.132890e-05
0.132932 -2.934902e-05
0.133182 -2.735685e-05
0.133432 -2.535327e-05
0.133682 -2.333918e-05
0.133932 -2.131549e-05
0.134182 -1.928310e-05
0.134432 -1.724291e-05
0.134682 -1.519585e-05
0.134932 -1.314283e-05
0.135182 -1.108475e-05
0.135432 -9.022534e-06
0.135682 -6.957105e-06
0.135932 -4.889380e-06
0.136182 -2.820277e-06
0.136432 -7.507159e-07
0.136682 1.318385e-06
0.136932 3.386108e-06
0.137182 5.451536e-06
0.137432 7.513755e-06
0.137682 9.571852e-06
0.137932 1.162492e-05
0.138182 1.367204e-05
0.138432 1.571232e-05
0.138682 1.774486e-05
0.138932 1.976876e-05
0.139182 2.178313e-05
0.139432 2.378708e-05
0.139682 2.577973e-05
0.139932 2.776021e-05
0.140182 2.972764e-05
0.140432 3.168117e-05
0.140682 3.361993e-05
0.140932 3.554308e-05
0.141182 3.744978e-05
0.141432 3.933919e-05
0.141682 4.121048e-05
0.141932 4.306285e-05
0.142182 4.489548e-05
0.142432 4.670758e-05
0.142682 4.849835e-05
0.142932 5.026702e-05
0.143182 5.201282e-05
0.143432 5.373500e-05
0.143682 5.543280e-05
0.143932 5.710549e-05
0.144182 5.875235e-05
0.144432 6.037267e-05
0.144682 6.196575e-05
0.144932 6.353090e-05
0.145182 6.506746e-05
0.145432 6.657475e-05
0.145682 6.805213e-05
0.145932 6.949897e-05
0.146182 7.091465e-05
0.146432 7.229857e-05
0.146682 7.365014e-05
0.146932 7.496877e-05
0.147182 7.625391e-05
0.147432 7.750502e-05
0.147682 7.872157e-05
0.147932 7.990303e-05
0.148182 8.104892e-05
0.148432 8.215874e-05
0.148682 8.323204e-05
0.148932 8.426837e-05
0.149182 8.526729e-05
0.149432 8.622839e-05
0.149682 8.715127e-05
0.149932 8.803554e-05
0.150182 8.888084e-05
0.150432 8.968684e-05
0.150682 9.045319e-05
0.150932 9.117958e-05
0.151182 9.186573e-05
0.151432 9.251135e-05
0.151682 9.311620e-05
0.151932 9.368002e-05
0.152182 9.420260e-05
0.152432 9.468374e-05
0.152682 9.512325e-05
0.152932 9.552097e-05
0.153182 9.587674e-05
0.153432 9.619045e-05
0.153682 9.646198e-05
0.153932 9.669123e-05
0.154182 9.687815e-05
0.154432 9.702266e-05
0.154682 9.712474e-05
0.154932 9.718437e-05
0.155182 9.720156e-05
0.155432 9.717632e-05
0.155682 9.710869e-05
0.155932 9.699873e-05
0.156182 9.684651e-05
0.156432 9.665214e-05
0.156682 9.641573e-05
0.156932 9.613740e-05
0.157182 9.581731e-05
0.157432 9.545562e-05
0.157682 9.505253e-05
0.157932 9.460823e-05
0.158182 9.412295e-05
0.158432 9.359693e-05
0.158682 9.303043e-05
0.158932 9.242372e-05
0.159182 9.177709e-05
0.159432 9.109086e-05
0.159682 9.036535e-05
0.159932 8.960091e-05
0.160182 8.879789e-05
0.160432 8.795668e-05
0.160682 8.707767e-05
0.160932 8.616127e-05
0.161182 8.520790e-05
0.161432 8.421801e-05
0.161682 8.319205e-05
0.161932 8.213050e-05
0.162182 8.103385e-05
0.162432 7.990260e-05
0.162682 7.873726e-05
0.162932 7.753837e-05
0.163182 7.630648e-05
0.163432 7.504214e-05
0.163682 7.374594e-05
0.163932 7.241846e-05
0.164182 7.106029e-05
0.164432 6.967206e-05
0.164682 6.825438e-05
0.164932 6.680791e-05
0.165182 6.533328e-05
0.165432 6.383117e-05
0.165682 6.230224e-05
0.165932 6.074719e-05
0.166182 5.916670e-05
0.166432 5.756148e-05
0.166682 5.593225e-05
0.166932 5.427974e-05
0.167182 5.260469e-05
0.167432 5.090783e-05
0.167682 4.918992e-05
0.167932 4.745172e-05
0.168182 4.569401e-05
0.168432 4.391757e-05
0.168682 4.212317e-05
0.168932 4.031162e-05
0.169182 3.848371e-05
0.169432 3.664024e-05
0.169682 3.478205e-05
0.169932 3.290993e-05
0.170182 3.102471e-05
0.170432 2.912723e-05
0.170682 2.721831e-05
0.170932 2.529879e-05
0.171182 2.336952e-05
0.171432 2.143134e-05
0.171682 1.948509e-05
0.171932 1.753163e-05
0.172182 1.557181e-05
0.172432 1.360648e-05
0.172682 1.163651e-05
0.172932 9.662747e-06
0.173182 7.686051e-06
0.173432 5.707282e-06
0.173682 3.727301e-06
0.173932 1.746964e-06
0.174182 -2.328673e-07
0.174432 -2.211337e-06
0.174682 -4.187590e-06
0.174932 -6.160770e-06
0.175182 -8.130026e-06
0.175432 -1.009451e-05
0.175682 -1.205337e-05
0.175932 -1.400576e-05
0.176182 -1.595086e-05
0.176432 -1.788781e-05
0.176682 -1.981578e-05
0.176932 -2.173396e-05
0.177182 -2.364152e-05
0.177432 -2.553763e-05
0.177682 -2.742150e-05
0.177932 -2.929232e-05
0.178182 -3.114927e-05
0.178432 -3.299159e-05
0.178682 -3.481847e-05
0.178932 -3.662915e-05
0.179182 -3.842285e-05
0.179432 -4.019882e-05
0.179682 -4.195629e-05
0.179932 -4.369453e-05
0.180182 -4.541280e-05
0.180432 -4.711037e-05
0.180682 -4.878653e-05
0.180932 -5.044057e-05
0.181182 -5.207179e-05
0.181432 -5.367951e-05
0.181682 -5.526306e-05
0.181932 -5.682178e-05
0.182182 -5.835500e-05
0.182432 -5.986209e-05
0.182682 -6.134242e-05
0.182932 -6.279537e-05
0.183182 -6.422035e-05
0.183432 -6.561675e-05
0.183682 -6.698401e-05
0.183932 -6.832155e-05
0.184182 -6.962882e-05
0.184432 -7.090529e-05
0.184682 -7.215044e-05
0.184932 -7.336374e-05
0.185182 -7.454471e-05
0.185432 -7.569287e-05
0.185682 -7.680774e-05
0.185932 -7.788888e-05
0.186182 -7.893584e-05
0.186432 -7.994822e-05
0.186682 -8.092559e-05
0.186932 -8.186758e-05
0.187182 -8.277379e-05
0.187432 -8.364389e-05
0.187682 -8.447752e-05
0.187932 -8.527435e-05
0.188182 -8.603408e-05