-0.138818 -1.562869e-07
-0.138568 -1.599407e-07
-0.138318 -1.635371e-07
-0.138068 -1.670749e-07
-0.137818 -1.705530e-07
-0.137568 -1.739705e-07
-0.137318 -1.773264e-07
-0.137068 -1.806197e-07
-0.136818 -1.838495e-07
-0.136568 -1.870147e-07
-0.136318 -1.901145e-07
-0.136068 -1.931480e-07
-0.135818 -1.961144e-07
-0.135568 -1.990126e-07
-0.135318 -2.018421e-07
-0.135068 -2.046018e-07
-0.134818 -2.072911e-07
-0.134568 -2.099091e-07
-0.134318 -2.124551e-07
-0.134068 -2.149285e-07
-0.133818 -2.173284e-07
-0.133568 -2.196543e-07
-0.133318 -2.219054e-07
-0.133068 -2.240812e-07
-0.132818 -2.261810e-07
-0.132568 -2.282042e-07
-0.132318 -2.301504e-07
-0.132068 -2.320189e-07
-0.131818 -2.338092e-07
-0.131568 -2.355209e-07
-0.131318 -2.371535e-07
-0.131068 -2.387065e-07
-0.130818 -2.401796e-07
-0.130568 -2.415724e-07
-0.130318 -2.428844e-07
-0.130068 -2.441154e-07
-0.129818 -2.452650e-07
-0.129568 -2.463330e-07
-0.129318 -2.473190e-07
-0.129068 -2.482229e-07
-0.128818 -2.490445e-07
-0.128568 -2.497835e-07
-0.128318 -2.504397e-07
-0.128068 -2.510132e-07
-0.127818 -2.515036e-07
-0.127568 -2.519110e-07
-0.127318 -2.522353e-07
-0.127068 -2.524764e-07
-0.126818 -2.526344e-07
-0.126568 -2.527093e-07
-0.126318 -2.527010e-07
-0.126068 -2.526097e-07
-0.125818 -2.524354e-07
-0.125568 -2.521783e-07
-0.125318 -2.518386e-07
-0.125068 -2.514163e-07
-0.124818 -2.509117e-07
-0.124568 -2.503249e-07
-0.124318 -2.496563e-07
-0.124068 -2.489061e-07
-0.123818 -2.480746e-07
-0.123568 -2.471620e-07
-0.123318 -2.461688e-07
-0.123068 -2.450953e-07
-0.122818 -2.439420e-07
-0.122568 -2.427091e-07
-0.122318 -2.413971e-07
-0.122068 -2.400066e-07
-0.121818 -2.385379e-07
-0.121568 -2.369917e-07
-0.121318 -2.353684e-07
-0.121068 -2.336685e-07
-0.120818 -2.318927e-07
-0.120568 -2.300416e-07
-0.120318 -2.281158e-07
-0.120068 -2.261158e-07
-0.119818 -2.240425e-07
-0.119568 -2.218965e-07
-0.119318 -2.196784e-07
-0.119068 -2.173891e-07
-0.118818 -2.150292e-07
-0.118568 -2.125996e-07
-0.118318 -2.101010e-07
-0.118068 -2.075343e-07
-0.117818 -2.049003e-07
-0.117568 -2.021998e-07
-0.117318 -1.994338e-07
-0.117068 -1.966031e-07
-0.116818 -1.937086e-07
-0.116568 -1.907513e-07
-0.116318 -1.877321e-07
-0.116068 -1.846520e-07
-0.115818 -1.815119e-07
-0.115568 -1.783129e-07
-0.115318 -1.750560e-07
-0.115068 -1.717423e-07
-0.114818 -1.683727e-07
-0.114568 -1.649485e-07
-0.114318 -1.614705e-07
-0.114068 -1.579400e-07
-0.113818 -1.543581e-07
-0.113568 -1.507259e-07
-0.113318 -1.470445e-07
-0.113068 -1.433151e-07
-0.112818 -1.395389e-07
-0.112568 -1.357171e-07
-0.112318 -1.318509e-07
-0.112068 -1.279414e-07
-0.111818 -1.239900e-07
-0.111568 -1.199979e-07
-0.111318 -1.159662e-07
-0.111068 -1.118963e-07
-0.110818 -1.077894e-07
-0.110568 -1.036469e-07
-0.110318 -9.946996e-08
-0.110068 -9.525995e-08
-0.109818 -9.101817e-08
-0.109568 -8.674593e-08
-0.109318 -8.244456e-08
-0.109068 -7.811541e-08
-0.108818 -7.375980e-08
-0.108568 -6.937910e-08
-0.108318 -6.497466e-08
-0.108068 -6.054785e-08
-0.107818 -5.610003e-08
-0.107568 -5.163258e-08
-0.107318 -4.714687e-08
-0.107068 -4.264430e-08
-0.106818 -3.812624e-08
-0.106568 -3.359410e-08
-0.106318 -2.904927e-08
-0.106068 -2.449315e-08
-0.105818 -1.992713e-08
-0.105568 -1.535262e-08
-0.105318 -1.077102e-08
-0.105068 -6.183745e-09
-0.104818 -1.592193e-09
-0.104568 3.002227e-09
-0.104318 7.598108e-09
-0.104068 1.219405e-08
-0.103818 1.678864e-08
-0.103568 2.138048e-08
-0.103318 2.596816e-08
-0.103068 3.055029e-08
-0.102818 3.512548e-08
-0.102568 3.969232e-08
-0.102318 4.424944e-08
-0.102068 4.879543e-08
-0.101818 5.332893e-08
-0.101568 5.784855e-08
-0.101318 6.235292e-08
-0.101068 6.684069e-08
-0.100818 7.131048e-08
-0.100568 7.576094e-08
-0.100318 8.019074e-08
-0.100068 8.459852e-08
-0.099818 8.898297e-08
-0.099568 9.334275e-08
-0.099318 9.767654e-08
-0.099068 1.019831e-07
-0.098818 1.062610e-07
-0.098568 1.105090e-07
-0.098318 1.147260e-07
-0.098068 1.189105e-07
-0.097818 1.230613e-07
-0.097568 1.271772e-07
-0.097318 1.312570e-07
-0.097068 1.352994e-07
-0.096818 1.393032e-07
-0.096568 1.432673e-07
-0.096318 1.471904e-07
-0.096068 1.510713e-07
-0.095818 1.549090e-07
-0.095568 1.587023e-07
-0.095318 1.624500e-07
-0.095068 1.661510e-07
-0.094818 1.698043e-07
-0.094568 1.734087e-07
-0.094318 1.769633e-07
-0.094068 1.804668e-07
-0.093818 1.839184e-07
-0.093568 1.873169e-07
-0.093318 1.906614e-07
-0.093068 1.939509e-07
-0.092818 1.971844e-07
-0.092568 2.003610e-07
-0.092318 2.034798e-07
-0.092068 2.065398e-07
-0.091818 2.095401e-07
-0.091568 2.124799e-07
-0.091318 2.153583e-07
-0.091068 2.181745e-07
-0.090818 2.209277e-07
-0.090568 2.236170e-07
-0.090318 2.262416e-07
-0.090068 2.288009e-07
-0.089818 2.312941e-07
-0.089568 2.337205e-07
-0.089318 2.360793e-07
-0.089068 2.383699e-07
-0.088818 2.405917e-07
-0.088568 2.427440e-07
-0.088318 2.448262e-07
-0.088068 2.468377e-07
-0.087818 2.487779e-07
-0.087568 2.506464e-07
-0.087318 2.524426e-07
-0.087068 2.541659e-07
-0.086818 2.558160e-07
-0.086568 2.573923e-07
-0.086318 2.588944e-07
-0.086068 2.603219e-07
-0.085818 2.616745e-07
-0.085568 2.629517e-07
-0.085318 2.641533e-07
-0.085068 2.652788e-07
-0.084818 2.663281e-07
-0.084568 2.673009e-07
-0.084318 2.681968e-07
-0.084068 2.690158e-07
-0.083818 2.697575e-07
-0.083568 2.704218e-07
-0.083318 2.710086e-07
-0.083068 2.715177e-07
-0.082818 2.719490e-07
-0.082568 2.723025e-07
-0.082318 2.725781e-07
-0.082068 2.727757e-07
-0.081818 2.728954e-07
-0.081568 2.729371e-07
-0.081318 2.729010e-07
-0.081068 2.727870e-07
-0.080818 2.725953e-07
-0.080568 2.723259e-07
-0.080318 2.719791e-07
-0.080068 2.715549e-07
-0.079818 2.710535e-07
-0.079568 2.704752e-07
-0.079318 2.698201e-07
-0.079068 2.690886e-07
-0.078818 2.682808e-07
-0.078568 2.673972e-07
-0.078318 2.664379e-07
-0.078068 2.654034e-07
-0.077818 2.642940e-07
-0.077568 2.631101e-07
-0.077318 2.618521e-07
-0.077068 2.605204e-07
-0.076818 2.591156e-07
-0.076568 2.576380e-07
-0.076318 2.560882e-07
-0.076068 2.544667e-07
-0.075818 2.527740e-07
-0.075568 2.510107e-07
-0.075318 2.491774e-07
-0.075068 2.472747e-07
-0.074818 2.453032e-07
-0.074568 2.432635e-07
-0.074318 2.411564e-07
-0.074068 2.389824e-07
-0.073818 2.367424e-07
-0.073568 2.344370e-07
-0.073318 2.320670e-07
-0.073068 2.296332e-07
-0.072818 2.271362e-07
-0.072568 2.245770e-07
-0.072318 2.219564e-07
-0.072068 2.192751e-07
-0.071818 2.165341e-07
-0.071568 2.137342e-07
-0.071318 2.108763e-07
-0.071068 2.079613e-07
-0.070818 2.049902e-07
-0.070568 2.019639e-07
-0.070318 1.988832e-07
-0.070068 1.957494e-07
-0.069818 1.925632e-07
-0.069568 1.893257e-07
-0.069318 1.860379e-07
-0.069068 1.827009e-07
-0.068818 1.793157e-07
-0.068568 1.758834e-07
-0.068318 1.724050e-07
-0.068068 1.688816e-07
-0.067818 1.653144e-07
-0.067568 1.617044e-07
-0.067318 1.580528e-07
-0.067068 1.543607e-07
-0.066818 1.506293e-07
-0.066568 1.468597e-07
-0.066318 1.430531e-07
-0.066068 1.392106e-07
-0.065818 1.353336e-07
-0.065568 1.314231e-07
-0.065318 1.274803e-07
-0.065068 1.235066e-07
-0.064818 1.195031e-07
-0.064568 1.154711e-07
-0.064318 1.114117e-07
-0.064068 1.073264e-07
-0.063818 1.032162e-07
-0.063568 9.908258e-08
-0.063318 9.492668e-08
-0.063068 9.074983e-08
-0.062818 8.655329e-08
-0.062568 8.233837e-08
-0.062318 7.810634e-08
-0.062068 7.385852e-08
-0.061818 6.959620e-08
-0.061568 6.532069e-08
-0.061318 6.103329e-08
-0.061068 5.673531e-08
-0.060818 5.242808e-08
-0.060568 4.811290e-08
-0.060318 4.379109e-08
-0.060068 3.946396e-08
-0.059818 3.513285e-08
-0.059568 3.079906e-08
-0.059318 2.646391e-08
-0.059068 2.212872e-08
-0.058818 1.779481e-08
-0.058568 1.346350e-08
-0.058318 9.136091e-09
-0.058068 4.813904e-09
-0.057818 4.982470e-10
-0.057568 -3.809574e-09
-0.057318 -8.108256e-09
-0.057068 -1.239650e-08
-0.056818 -1.667301e-08
-0.056568 -2.093649e-08
-0.056318 -2.518566e-08
-0.056068 -2.941924e-08
-0.055818 -3.363595e-08
-0.055568 -3.783453e-08
-0.055318 -4.201370e-08
-0.055068 -4.617222e-08
-0.054818 -5.030883e-08
-0.054568 -5.442230e-08
-0.054318 -5.851139e-08
-0.054068 -6.257487e-08
-0.053818 -6.661153e-08
-0.053568 -7.062016e-08
-0.053318 -7.459957e-08
-0.053068 -7.854856e-08
-0.052818 -8.246595e-08
-0.052568 -8.635058e-08
-0.052318 -9.020130e-08
-0.052068 -9.401694e-08
-0.051818 -9.779639e-08
-0.051568 -1.015385e-07
-0.051318 -1.052422e-07
-0.051068 -1.089064e-07
-0.050818 -1.125299e-07
-0.050568 -1.161118e-07
-0.050318 -1.196509e-07
-0.050068 -1.231462e-07
-0.049818 -1.265967e-07
-0.049568 -1.300013e-07
-0.049318 -1.333591e-07
-0.049068 -1.366691e-07
-0.048818 -1.399302e-07
-0.048568 -1.431417e-07
-0.048318 -1.463024e-07
-0.048068 -1.494114e-07
-0.047818 -1.524680e-07
-0.047568 -1.554711e-07
-0.047318 -1.584199e-07
-0.047068 -1.613136e-07
-0.046818 -1.641513e-07
-0.046568 -1.669321e-07
-0.046318 -1.696554e-07
-0.046068 -1.723202e-07
-0.045818 -1.749258e-07
-0.045568 -1.774715e-07
-0.045318 -1.799566e-07
-0.045068 -1.823802e-07
-0.044818 -1.847418e-07
-0.044568 -1.870407e-07
-0.044318 -1.892762e-07
-0.044068 -1.914476e-07
-0.043818 -1.935544e-07
-0.043568 -1.955960e-07
-0.043318 -1.975717e-07
-0.043068 -1.994811e-07
-0.042818 -2.013236e-07
-0.042568 -2.030987e-07
-0.042318 -2.048058e-07
-0.042068 -2.064446e-07
-0.041818 -2.080146e-07
-0.041568 -2.095153e-07
-0.041318 -2.109464e-07
-0.041068 -2.123074e-07
-0.040818 -2.135980e-07
-0.040568 -2.148179e-07
-0.040318 -2.159667e-07
-0.040068 -2.170441e-07
-0.039818 -2.180499e-07
-0.039568 -2.189837e-07
-0.039318 -2.198455e-07
-0.039068 -2.206349e-07
-0.038818 -2.213517e-07
-0.038568 -2.219959e-07
-0.038318 -2.225672e-07
-0.038068 -2.230655e-07
-0.037818 -2.234908e-07
-0.037568 -2.238429e-07
-0.037318 -2.241219e-07
-0.037068 -2.243276e-07
-0.036818 -2.244600e-07
-0.036568 -2.245193e-07
-0.036318 -2.245053e-07
-0.036068 -2.244182e-07
-0.035818 -2.242581e-07
-0.035568 -2.240249e-07
-0.035318 -2.237190e-07
-0.035068 -2.233403e-07
-0.034818 -2.228891e-07
-0.034568 -2.223656e-07
-0.034318 -2.217700e-07
-0.034068 -2.211024e-07
-0.033818 -2.203632e-07
-0.033568 -2.195527e-07
-0.033318 -2.186711e-07
-0.033068 -2.177187e-07
-0.032818 -2.166959e-07
-0.032568 -2.156031e-07
-0.032318 -2.144406e-07
-0.032068 -2.132088e-07
-0.031818 -2.119082e-07
-0.031568 -2.105392e-07
-0.031318 -2.091023e-07
-0.031068 -2.075979e-07
-0.030818 -2.060266e-07
-0.030568 -2.043889e-07
-0.030318 -2.026853e-07
-0.030068 -2.009164e-07
-0.029818 -1.990827e-07
-0.029568 -1.971850e-07
-0.029318 -1.952237e-07
-0.029068 -1.931997e-07
-0.028818 -1.911134e-07
-0.028568 -1.889656e-07
-0.028318 -1.867569e-07
-0.028068 -1.844882e-07
-0.027818 -1.821601e-07
-0.027568 -1.797734e-07
-0.027318 -1.773289e-07
-0.027068 -1.748272e-07
-0.026818 -1.722693e-07
-0.026568 -1.696560e-07
-0.026318 -1.669880e-07
-0.026068 -1.642663e-07
-0.025818 -1.614917e-07
-0.025568 -1.586651e-07
-0.025318 -1.557873e-07
-0.025068 -1.528594e-07
-0.024818 -1.498822e-07
-0.024568 -1.468566e-07
-0.024318 -1.437836e-07
-0.024068 -1.406643e-07
-0.023818 -1.374995e-07
-0.023568 -1.342902e-07
-0.023318 -1.310375e-07
-0.023068 -1.277425e-07
-0.022818 -1.244060e-07
-0.022568 -1.210292e-07
-0.022318 -1.176132e-07
-0.022068 -1.141589e-07
-0.021818 -1.106675e-07
-0.021568 -1.071401e-07
-0.021318 -1.035777e-07
-0.021068 -9.998153e-08
-0.020818 -9.635262e-08
-0.020568 -9.269213e-08
-0.020318 -8.900120e-08
-0.020068 -8.528097e-08
-0.019818 -8.153259e-08
-0.019568 -7.775723e-08
-0.019318 -7.395606e-08
-0.019068 -7.013025e-08
-0.018818 -6.628099e-08
-0.018568 -6.240946e-08
-0.018318 -5.851687e-08
-0.018068 -5.460441e-08
-0.017818 -5.067328e-08
-0.017568 -4.672471e-08
-0.017318 -4.275991e-08
-0.017068 -3.878010e-08
-0.016818 -3.478650e-08
-0.016568 -3.078035e-08
-0.016318 -2.676287e-08
-0.016068 -2.273529e-08
-0.015818 -1.869886e-08
-0.015568 -1.465481e-08
-0.015318 -1.060438e-08
-0.015068 -6.548821e-09
-0.014818 -2.489366e-09
-0.014568 1.572739e-09
-0.014318 5.636250e-09
-0.014068 9.699924e-09
-0.013818 1.376252e-08
-0.013568 1.782279e-08
-0.013318 2.187950e-08
-0.013068 2.593141e-08
-0.012818 2.997728e-08
-0.012568 3.401587e-08
-0.012318 3.804595e-08
-0.012068 4.206630e-08
-0.011818 4.607569e-08
-0.011568 5.007289e-08
-0.011318 5.405668e-08
-0.011068 5.802585e-08
-0.010818 6.197920e-08
-0.010568 6.591551e-08
-0.010318 6.983359e-08
-0.010068 7.373224e-08
-0.009818 7.761027e-08
-0.009568 8.146651e-08
-0.009318 8.529978e-08
-0.009068 8.910890e-08
-0.008818 9.289272e-08
-0.008568 9.665009e-08
-0.008318 1.003799e-07
-0.008068 1.040809e-07
-0.007818 1.077520e-07
-0.007568 1.113922e-07
-0.007318 1.150003e-07
-0.007068 1.185751e-07
-0.006818 1.221157e-07
-0.006568 1.256209e-07
-0.006318 1.290896e-07
-0.006068 1.325208e-07
-0.005818 1.359134e-07
-0.005568 1.392664e-07
-0.005318 1.425787e-07
-0.005068 1.458494e-07
-0.004818 1.490774e-07
-0.004568 1.522617e-07
-0.004318 1.554013e-07
-0.004068 1.584953e-07
-0.003818 1.615426e-07
-0.003568 1.645424e-07
-0.003318 1.674937e-07
-0.003068 1.703956e-07
-0.002818 1.732471e-07
-0.002568 1.760473e-07
-0.002318 1.787954e-07
-0.002068 1.814905e-07
-0.001818 1.841317e-07
-0.001568 1.867181e-07
-0.001318 1.892490e-07
-0.001068 1.917234e-07
-0.000818 1.941406e-07
-0.000568 1.964997e-07
-0.000318 1.988000e-07
-0.000068 2.010408e-07
0.000182 2.032211e-07
0.000432 2.053403e-07
0.000682 2.073976e-07
0.000932 2.093924e-07
0.001182 2.113238e-07
0.001432 2.131912e-07
0.001682 2.149939e-07
0.001932 2.167312e-07
0.002182 2.184024e-07
0.002432 2.200069e-07
0.002682 2.215440e-07
0.002932 2.230130e-07
0.003182 2.244134e-07
0.003432 2.257445e-07
0.003682 2.270058e-07
0.003932 2.281965e-07
0.004182 2.293161e-07
0.004432 2.303641e-07
0.004682 2.313398e-07
0.004932 2.322427e-07
0.005182 2.330721e-07
0.005432 2.338276e-07
0.005682 2.345086e-07
0.005932 2.351145e-07
0.006182 2.356448e-07
0.006432 2.360989e-07
0.006682 2.364762e-07
0.006932 2.367763e-07
0.007182 2.369985e-07
0.007432 2.371424e-07
0.007682 2.372074e-07
0.007932 2.371929e-07
0.008182 2.370983e-07
0.008432 2.369232e-07
0.008682 2.366668e-07
0.008932 2.363287e-07
0.009182 2.359083e-07
0.009432 2.354049e-07
0.009682 2.348180e-07
0.009932 2.341469e-07
0.010182 2.333909e-07
0.010432 2.325495e-07
0.010682 2.316218e-07
0.010932 2.306073e-07
0.011182 2.295051e-07
0.011432 2.283146e-07
0.011682 2.270350e-07
0.011932 2.256654e-07
0.012182 2.242049e-07
0.012432 2.226528e-07
0.012682 2.210081e-07
0.012932 2.192698e-07
0.013182 2.174370e-07
0.013432 2.155086e-07
0.013682 2.134834e-07
0.013932 2.113605e-07
0.014182 2.091384e-07
0.014432 2.068161e-07
0.014682 2.043921e-07
0.014932 2.018651e-07
0.015182 1.992336e-07
0.015432 1.964961e-07
0.015682 1.936510e-07
0.015932 1.906965e-07
0.016182 1.876309e-07
0.016432 1.844523e-07
0.016682 1.811588e-07
0.016932 1.777482e-07
0.017182 1.742185e-07
0.017432 1.705672e-07
0.017682 1.667920e-07
0.017932 1.628903e-07
0.018182 1.588595e-07
0.018432 1.546968e-07
0.018682 1.503992e-07
0.018932 1.459637e-07
0.019182 1.413869e-07
0.019432 1.366655e-07
0.019682 1.317958e-07
0.019932 1.267742e-07
0.020182 1.215966e-07
0.020432 1.162588e-07
0.020682 1.107566e-07
0.020932 1.050853e-07
0.021182 9.924010e-08
0.021432 9.321600e-08
0.021682 8.700770e-08
0.021932 8.060965e-08
0.022182 7.401605e-08
0.022432 6.722081e-08
0.022682 6.021755e-08
0.022932 5.299959e-08
0.023182 4.555994e-08
0.023432 3.789127e-08
0.023682 2.998592e-08
0.023932 2.183587e-08
0.024182 1.343272e-08
0.024432 4.767699e-09
0.024682 -4.168377e-09
0.024932 -1.338510e-08
0.025182 -2.289251e-08
0.025432 -3.270109e-08
0.025682 -4.282178e-08
0.025932 -5.326603e-08
0.026182 -6.404579e-08
0.026432 -7.517353e-08
0.026682 -8.666228e-08
0.026932 -9.852562e-08
0.027182 -1.107777e-07
0.027432 -1.234334e-07
0.027682 -1.365081e-07
0.027932 -1.500179e-07
0.028182 -1.639796e-07
0.028432 -1.784106e-07
0.028682 -1.933292e-07
0.028932 -2.087544e-07
0.029182 -2.247060e-07
0.029432 -2.412045e-07
0.029682 -2.582715e-07
0.029932 -2.759292e-07
0.030182 -2.942010e-07
0.030432 -3.131110e-07
0.030682 -3.326844e-07
0.030932 -3.529475e-07
0.031182 -3.739275e-07
0.031432 -3.956528e-07
0.031682 -4.181527e-07
0.031932 -4.414582e-07
0.032182 -4.656008e-07
0.032432 -4.906139e-07
0.032682 -5.165318e-07
0.032932 -5.433903e-07
0.033182 -5.712265e-07
0.033432 -6.000790e-07
0.033682 -6.299878e-07
0.033932 -6.609947e-07
0.034182 -6.931427e-07
0.034432 -7.264767e-07
0.034682 -7.610433e-07
0.034932 -7.968906e-07
0.035182 -8.340688e-07
0.035432 -8.726298e-07
0.035682 -9.126275e-07
0.035932 -9.541178e-07
0.036182 -9.971586e-07
0.036432 -1.041810e-06
0.036682 -1.088134e-06
0.036932 -1.136196e-06
0.037182 -1.186061e-06
0.037432 -1.237800e-06
0.037682 -1.291484e-06
0.037932 -1.347188e-06
0.038182 -1.404988e-06
0.038432 -1.464964e-06
0.038682 -1.527199e-06
0.038932 -1.591778e-06
0.039182 -1.658788e-06
0.039432 -1.728323e-06
0.039682 -1.800476e-06
0.039932 -1.875345e-06
0.040182 -1.953032e-06
0.040432 -2.033641e-06
0.040682 -2.117281e-06
0.040932 -2.204062e-06
0.041182 -2.294102e-06
0.041432 -2.387520e-06
0.041682 -2.484440e-06
0.041932 -2.584988e-06
0.042182 -2.689298e-06
0.042432 -2.797505e-06
0.042682 -2.909750e-06
0.042932 -3.026180e-06
0.043182 -3.146943e-06
0.043432 -3.272196e-06
0.043682 -3.402098e-06
0.043932 -3.536815e-06
0.044182 -3.676516e-06
0.044432 -3.821379e-06
0.044682 -3.971584e-06
0.044932 -4.127319e-06
0.045182 -4.288777e-06
0.045432 -4.456157e-06
0.045682 -4.629665e-06
0.045932 -4.809513e-06
0.046182 -4.995919e-06
0.046432 -5.189108e-06
0.046682 -5.389312e-06
0.046932 -5.596770e-06
0.047182 -5.811729e-06
0.047432 -6.034441e-06
0.047682 -6.265169e-06
0.047932 -6.504182e-06
0.048182 -6.751756e-06
0.048432 -7.008176e-06
0.048682 -7.273738e-06
0.048932 -7.548742e-06
0.049182 -7.833500e-06
0.049432 -8.128332e-06
0.049682 -8.433568e-06
0.049932 -8.749546e-06
0.050182 -9.076615e-06
0.050432 -9.415132e-06
0.050682 -9.765468e-06
0.050932 -1.012800e-05
0.051182 -1.050312e-05
0.051432 -1.089122e-05
0.051682 -1.129272e-05
0.051932 -1.170804e-05
0.052182 -1.213762e-05
0.052432 -1.258189e-05
0.052682 -1.304133e-05
0.052932 -1.351639e-05
0.053182 -1.400756e-05
0.053432 -1.451535e-05
0.053682 -1.504024e-05
0.053932 -1.558278e-05
0.054182 -1.614349e-05
0.054432 -1.672293e-05
0.054682 -1.732166e-05
0.054932 -1.794025e-05
0.055182 -1.857930e-05
0.055432 -1.923943e-05
0.055682 -1.992125e-05
0.055932 -2.062539e-05
0.056182 -2.135253e-05
0.056432 -2.210333e-05
0.056682 -2.287847e-05
0.056932 -2.367867e-05
0.057182 -2.450464e-05
0.057432 -2.535713e-05
0.057682 -2.623688e-05
0.057932 -2.714468e-05
0.058182 -2.808133e-05
0.058432 -2.904762e-05
0.058682 -3.004439e-05
0.058932 -3.107250e-05
0.059182 -3.213281e-05
0.059432 -3.322621e-05
0.059682 -3.435362e-05
0.059932 -3.551595e-05
0.060182 -3.671417e-05
0.060432 -3.794924e-05
0.060682 -3.922216e-05
0.060932 -4.053394e-05
0.061182 -4.188562e-05
0.061432 -4.327826e-05
0.061682 -4.471294e-05
0.061932 -4.619077e-05
0.062182 -4.771286e-05
0.062432 -4.928039e-05
0.062682 -5.089450e-05
0.062932 -5.255642e-05
0.063182 -5.426735e-05
0.063432 -5.602855e-05
0.063682 -5.784129e-05
0.063932 -5.970687e-05
0.064182 -6.162660e-05
0.064432 -6.360184e-05
0.064682 -6.563396e-05
0.064932 -6.772436e-05
0.065182 -6.987447e-05
0.065432 -7.208574e-05
0.065682 -7.435964e-05
0.065932 -7.669769e-05
0.066182 -7.910142e-05
0.066432 -8.157238e-05
0.066682 -8.411217e-05
0.066932 -8.672240e-05
0.067182 -8.940472e-05
0.067432 -9.216079e-05
0.067682 -9.499231e-05
0.067932 -9.790102e-05
0.068182 -1.008887e-04
0.068432 -1.039570e-04
0.068682 -1.071079e-04
0.068932 -1.103432e-04
0.069182 -1.136647e-04
0.069432 -1.170744e-04
0.069682 -1.205742e-04
0.069932 -1.241659e-04
0.070182 -1.278517e-04
0.070432 -1.316335e-04
0.070682 -1.355134e-04
0.070932 -1.394934e-04
0.071182 -1.435757e-04
0.071432 -1.477623e-04
0.071682 -1.520554e-04
0.071932 -1.564572e-04
0.072182 -1.609700e-04
0.072432 -1.655959e-04
0.072682 -1.703372e-04
0.072932 -1.751962e-04
0.073182 -1.801753e-04
0.073432 -1.852768e-04
0.073682 -1.905030e-04
0.073932 -1.958564e-04
0.074182 -2.013393e-04
0.074432 -2.069543e-04
0.074682 -2.127038e-04
0.074932 -2.185904e-04
0.075182 -2.246164e-04
0.075432 -2.307846e-04
0.075682 -2.370974e-04
0.075932 -2.435575e-04
0.076182 -2.501675e-04
0.076432 -2.569300e-04
0.076682 -2.638477e-04
0.076932 -2.709232e-04
0.077182 -2.781593e-04
0.077432 -2.855587e-04
0.077682 -2.931240e-04
0.077932 -3.008582e-04
0.078182 -3.087639e-04
0.078432 -3.168438e-04
0.078682 -3.251010e-04
0.078932 -3.335380e-04
0.079182 -3.421578e-04
0.079432 -3.509632e-04
0.079682 -3.599570e-04
0.079932 -3.691421e-04
0.080182 -3.785214e-04
0.080432 -3.880977e-04
0.080682 -3.978739e-04
0.080932 -4.078528e-04
0.081182 -4.180375e-04
0.081432 -4.284307e-04
0.081682 -4.390354e-04
0.081932 -4.498544e-04
0.082182 -4.608906e-04
0.082432 -4.721469e-04
0.082682 -4.836262e-04
0.082932 -4.953313e-04
0.083182 -5.072652e-04
0.083432 -5.194305e-04
0.083682 -5.318303e-04
0.083932 -5.444672e-04
0.084182 -5.573442e-04
0.084432 -5.704640e-04
0.084682 -5.838294e-04
0.084932 -5.974430e-04
0.085182 -6.113078e-04
0.085432 -6.254263e-04
0.085682 -6.398012e-04
0.085932 -6.544352e-04
0.086182 -6.693308e-04
0.086432 -6.844908e-04
0.086682 -6.999176e-04
0.086932 -7.156137e-04
0.087182 -7.315815e-04
0.087432 -7.478236e-04
0.087682 -7.643423e-04
0.087932 -7.811400e-04
0.088182 -7.982188e-04
0.088432 -8.155811e-04
0.088682 -8.332290e-04
0.088932 -8.511646e-04
0.089182 -8.693901e-04
0.089432 -8.879073e-04
0.089682 -9.067183e-04
0.089932 -9.258249e-04
0.090182 -9.452289e-04
0.090432 -9.649320e-04
0.090682 -9.849359e-04
0.090932 -1.005242e-03
0.091182 -1.025852e-03
0.091432 -1.046767e-03
0.091682 -1.067989e-03
0.091932 -1.089519e-03
0.092182 -1.111357e-03
0.092432 -1.133506e-03
0.092682 -1.155965e-03
0.092932 -1.178736e-03
0.093182 -1.201820e-03
0.093432 -1.225216e-03
0.093682 -1.248927e-03
0.093932 -1.272951e-03
0.094182 -1.297290e-03
0.094432 -1.321943e-03
0.094682 -1.346911e-03
0.094932 -1.372193e-03
0.095182 -1.397790e-03
0.095432 -1.423700e-03
0.095682 -1.449924e-03
0.095932 -1.476461e-03
0.096182 -1.503310e-03
0.096432 -1.530471e-03
0.096682 -1.557941e-03
0.096932 -1.585721e-03
0.097182 -1.613808e-03
0.097432 -1.642202e-03
0.097682 -1.670900e-03
0.097932 -1.699902e-03
0.098182 -1.729204e-03
0.098432 -1.758805e-03
0.098682 -1.788702e-03
0.098932 -1.818893e-03
0.099182 -1.849376e-03
0.099432 -1.880147e-03
0.099682 -1.911204e-03
0.099932 -1.942544e-03
0.100182 -1.974162e-03
0.100432 -2.006056e-03
0.100682 -2.038222e-03
0.100932 -2.070656e-03
0.101182 -2.103354e-03
0.101432 -2.136311e-03
0.101682 -2.169523e-03
0.101932 -2.202986e-03
0.102182 -2.236694e-03
0.102432 -2.270643e-03
0.102682 -2.304827e-03
0.102932 -2.339240e-03
0.103182 -2.373877e-03
0.103432 -2.408732e-03
0.103682 -2.443799e-03
0.103932 -2.479072e-03
0.104182 -2.514544e-03
0.104432 -2.550208e-03
0.104682 -2.586057e-03
0.104932 -2.622084e-03
0.105182 -2.658283e-03
0.105432 -2.694644e-03
0.105682 -2.731160e-03
0.105932 -2.767824e-03
0.106182 -2.804627e-03
0.106432 -2.841560e-03
0.106682 -2.878615e-03
0.106932 -2.915783e-03
0.107182 -2.953054e-03
0.107432 -2.990420e-03
0.107682 -3.027871e-03
0.107932 -3.065397e-03
0.108182 -3.102988e-03
0.108432 -3.140634e-03
0.108682 -3.178324e-03
0.108932 -3.216049e-03
0.109182 -3.253796e-03
0.109432 -3.291555e-03
0.109682 -3.329314e-03
0.109932 -3.367063e-03
0.110182 -3.404789e-03
0.110432 -3.442481e-03
0.110682 -3.480127e-03
0.110932 -3.517714e-03
0.111182 -3.555229e-03
0.111432 -3.592661e-03
0.111682 -3.629996e-03
0.111932 -3.667222e-03
0.112182 -3.704324e-03
0.112432 -3.741291e-03
0.112682 -3.778107e-03
0.112932 -3.814760e-03
0.113182 -3.851236e-03
0.113432 -3.887520e-03
0.113682 -3.923598e-03
0.113932 -3.959456e-03
0.114182 -3.995080e-03
0.114432 -4.030454e-03
0.114682 -4.065564e-03
0.114932 -4.100395e-03
0.115182 -4.134932e-03
0.115432 -4.169159e-03
0.115682 -4.203062e-03
0.115932 -4.236625e-03
0.116182 -4.269832e-03
0.116432 -4.302668e-03
0.116682 -4.335116e-03
0.116932 -4.367162e-03
0.117182 -4.398789e-03
0.117432 -4.429981e-03
0.117682 -4.460723e-03
0.117932 -4.490997e-03
0.118182 -4.520789e-03
0.118432 -4.550081e-03
0.118682 -4.578857e-03
0.118932 -4.607102e-03
0.119182 -4.634798e-03
0.119432 -4.661930e-03
0.119682 -4.688481e-03
0.119932 -4.714435e-03
0.120182 -4.739775e-03
0.120432 -4.764485e-03
0.120682 -4.788549e-03
0.120932 -4.811951e-03
0.121182 -4.834674e-03
0.121432 -4.856702e-03
0.121682 -4.878020e-03
0.121932 -4.898610e-03
0.122182 -4.918457e-03
0.122432 -4.937545e-03
0.122682 -4.955859e-03
0.122932 -4.973382e-03
0.123182 -4.990099e-03
0.123432 -5.005995e-03
0.123682 -5.021054e-03
0.123932 -5.035261e-03
0.124182 -5.048601e-03
0.124432 -5.061060e-03
0.124682 -5.072622e-03
0.124932 -5.083272e-03
0.125182 -5.092998e-03
0.125432 -5.101783e-03
0.125682 -5.109616e-03
0.125932 -5.116481e-03
0.126182 -5.122365e-03
0.126432 -5.127255e-03
0.126682 -5.131139e-03
0.126932 -5.134003e-03
0.127182 -5.135834e-03
0.127432 -5.136621e-03
0.127682 -5.136352e-03
0.127932 -5.135014e-03
0.128182 -5.132598e-03
0.128432 -5.129091e-03
0.128682 -5.124482e-03
0.128932 -5.118763e-03
0.129182 -5.111922e-03
0.129432 -5.103950e-03
0.129682 -5.094837e-03
0.129932 -5.084574e-03
0.130182 -5.073154e-03
0.130432 -5.060567e-03
0.130682 -5.046806e-03
0.130932 -5.031864e-03
0.131182 -5.015733e-03
0.131432 -4.998406e-03
0.131682 -4.979878e-03
0.131932 -4.960143e-03
0.132182 -4.939196e-03
0.132432 -4.917030e-03
0.132682 -4.893643e-03
0.132932 -4.869031e-03
0.133182 -4.843188e-03
0.133432 -4.816113e-03
0.133682 -4.787804e-03
0.133932 -4.758257e-03
0.134182 -4.727471e-03
0.134432 -4.695445e-03
0.134682 -4.662179e-03
0.134932 -4.627672e-03
0.135182 -4.591924e-03
0.135432 -4.554938e-03
0.135682 -4.516713e-03
0.135932 -4.477252e-03
0.136182 -4.436557e-03
0.136432 -4.394631e-03
0.136682 -4.351479e-03
0.136932 -4.307103e-03
0.137182 -4.261508e-03
0.137432 -4.214699e-03
0.137682 -4.166683e-03
0.137932 -4.117464e-03
0.138182 -4.067051e-03
0.138432 -4.015449e-03
0.138682 -3.962667e-03
0.138932 -3.908713e-03
0.139182 -3.853597e-03
0.139432 -3.797326e-03
0.139682 -3.739912e-03
0.139932 -3.681364e-03
0.140182 -3.621694e-03
0.140432 -3.560913e-03
0.140682 -3.499033e-03
0.140932 -3.436068e-03
0.141182 -3.372029e-03
0.141432 -3.306930e-03
0.141682 -3.240787e-03
0.141932 -3.173613e-03
0.142182 -3.105423e-03
0.142432 -3.036234e-03
0.142682 -2.966061e-03
0.142932 -2.894922e-03
0.143182 -2.822832e-03
0.143432 -2.749811e-03
0.143682 -2.675876e-03
0.143932 -2.601046e-03
0.144182 -2.525340e-03
0.144432 -2.448777e-03
0.144682 -2.371378e-03
0.144932 -2.293163e-03
0.145182 -2.214152e-03
0.145432 -2.134368e-03
0.145682 -2.053832e-03
0.145932 -1.972565e-03
0.146182 -1.890591e-03
0.146432 -1.807933e-03
0.146682 -1.724614e-03
0.146932 -1.640657e-03
0.147182 -1.556087e-03
0.147432 -1.470928e-03
0.147682 -1.385205e-03
0.147932 -1.298943e-03
0.148182 -1.212168e-03
0.148432 -1.124904e-03
0.148682 -1.037179e-03
0.148932 -9.490179e-04
0.149182 -8.604480e-04
0.149432 -7.714959e-04
0.149682 -6.821888e-04
0.149932 -5.925539e-04
0.150182 -5.026188e-04
0.150432 -4.124113e-04
0.150682 -3.219593e-04
0.150932 -2.312909e-04
0.151182 -1.404344e-04
0.151432 -4.941834e-05
0.151682 4.172880e-05
0.151932 1.329783e-04
0.152182 2.243012e-04
0.152432 3.156688e-04
0.152682 4.070519e-04
0.152932 4.984215e-04
0.153182 5.897484e-04
0.153432 6.810036e-04
0.153682 7.721577e-04
0.153932 8.631817e-04
0.154182 9.540462e-04
0.154432 1.044722e-03
0.154682 1.135180e-03
0.154932 1.225392e-03
0.155182 1.315327e-03
0.155432 1.404958e-03
0.155682 1.494254e-03
0.155932 1.583189e-03
0.156182 1.671732e-03
0.156432 1.759856e-03
0.156682 1.847532e-03
0.156932 1.934731e-03
0.157182 2.021427e-03
0.157432 2.107590e-03
0.157682 2.193194e-03
0.157932 2.278211e-03
0.158182 2.362614e-03
0.158432 2.446376e-03
0.158682 2.529471e-03
0.158932 2.611872e-03
0.159182 2.693552e-03
0.159432 2.774487e-03
0.159682 2.854651e-03
0.159932 2.934018e-03
0.160182 3.012565e-03
0.160432 3.090266e-03
0.160682 3.167097e-03
0.160932 3.243036e-03
0.161182 3.318058e-03
0.161432 3.392140e-03
0.161682 3.465261e-03
0.161932 3.537399e-03
0.162182 3.608531e-03
0.162432 3.678636e-03
0.162682 3.747694e-03
0.162932 3.815685e-03
0.163182 3.882589e-03
0.163432 3.948386e-03
0.163682 4.013058e-03
0.163932 4.076586e-03
0.164182 4.138954e-03
0.164432 4.200143e-03
0.164682 4.260136e-03
0.164932 4.318918e-03
0.165182 4.376474e-03
0.165432 4.432787e-03
0.165682 4.487843e-03
0.165932 4.541629e-03
0.166182 4.594131e-03
0.166432 4.645336e-03
0.166682 4.695232e-03
0.166932 4.743807e-03
0.167182 4.791050e-03
0.167432 4.836950e-03
0.167682 4.881499e-03
0.167932 4.924685e-03
0.168182 4.966501e-03
0.168432 5.006939e-03
0.168682 5.045990e-03
0.168932 5.083649e-03
0.169182 5.119908e-03
0.169432 5.154762e-03
0.169682 5.188206e-03
0.169932 5.220236e-03
0.170182 5.250847e-03
0.170432 5.280036e-03
0.170682 5.307801e-03
0.170932 5.334139e-03
0.171182 5.359050e-03
0.171432 5.382531e-03
0.171682 5.404584e-03
0.171932 5.425208e-03
0.172182 5.444403e-03
0.172432 5.462173e-03
0.172682 5.478518e-03
0.172932 5.493442e-03
0.173182 5.506948e-03
0.173432 5.519039e-03
0.173682 5.529720e-03
0.173932 5.538996e-03
0.174182 5.546873e-03
0.174432 5.553356e-03
0.174682 5.558452e-03
0.174932 5.562169e-03
0.175182 5.564513e-03
0.175432 5.565494e-03
0.175682 5.565120e-03
0.175932 5.563400e-03
0.176182 5.560344e-03
0.176432 5.555962e-03
0.176682 5.550265e-03
0.176932 5.543265e-03
0.177182 5.534972e-03
0.177432 5.525399e-03
0.177682 5.514559e-03
0.177932 5.502464e-03
0.178182 5.489128e-03
0.178432 5.474565e-03
0.178682 5.458789e-03
0.178932 5.441816e-03
0.179182 5.423659e-03
0.179432 5.404334e-03
0.179682 5.383858e-03
0.179932 5.362246e-03
0.180182 5.339515e-03
0.180432 5.315682e-03
0.180682 5.290764e-03
0.180932 5.264778e-03
0.181182 5.237743e-03
0.181432 5.209676e-03
0.181682 5.180596e-03
0.181932 5.150522e-03
0.182182 5.119471e-03
0.182432 5.087465e-03
0.182682 5.054521e-03
0.182932 5.020660e-03
0.183182 4.985901e-03
0.183432 4.950264e-03
0.183682 4.913770e-03
0.183932 4.876438e-03
0.184182 4.838290e-03
0.184432 4.799346e-03
0.184682 4.759627e-03
0.184932 4.719154e-03
0.185182 4.677947e-03
0.185432 4.636028e-03
0.185682 4.593419e-03
0.185932 4.550140e-03
0.186182 4.506213e-03