-0.138818 1.147138e-06
-0.138568 1.132133e-06
-0.138318 1.116783e-06
-0.138068 1.101094e-06
-0.137818 1.085070e-06
-0.137568 1.068719e-06
-0.137318 1.052045e-06
-0.137068 1.035054e-06
-0.136818 1.017753e-06
-0.136568 1.000147e-06
-0.136318 9.822423e-07
-0.136068 9.640457e-07
-0.135818 9.455631e-07
-0.135568 9.268012e-07
-0.135318 9.077663e-07
-0.135068 8.884650e-07
-0.134818 8.689041e-07
-0.134568 8.490902e-07
-0.134318 8.290303e-07
-0.134068 8.087313e-07
-0.133818 7.882000e-07
-0.133568 7.674437e-07
-0.133318 7.464694e-07
-0.133068 7.252843e-07
-0.132818 7.038957e-07
-0.132568 6.823108e-07
-0.132318 6.605371e-07
-0.132068 6.385820e-07
-0.131818 6.164530e-07
-0.131568 5.941576e-07
-0.131318 5.717034e-07
-0.131068 5.490980e-07
-0.130818 5.263491e-07
-0.130568 5.034644e-07
-0.130318 4.804518e-07
-0.130068 4.573188e-07
-0.129818 4.340735e-07
-0.129568 4.107236e-07
-0.129318 3.872770e-07
-0.129068 3.637416e-07
-0.128818 3.401253e-07
-0.128568 3.164361e-07
-0.128318 2.926820e-07
-0.128068 2.688709e-07
-0.127818 2.450108e-07
-0.127568 2.211097e-07
-0.127318 1.971756e-07
-0.127068 1.732165e-07
-0.126818 1.492404e-07
-0.126568 1.252554e-07
-0.126318 1.012694e-07
-0.126068 7.729038e-08
-0.125818 5.332638e-08
-0.125568 2.938534e-08
-0.125318 5.475224e-09
-0.125068 -1.839603e-08
-0.124818 -4.222051e-08
-0.124568 -6.599031e-08
-0.124318 -8.969758e-08
-0.124068 -1.133345e-07
-0.123818 -1.368932e-07
-0.123568 -1.603659e-07
-0.123318 -1.837449e-07
-0.123068 -2.070226e-07
-0.122818 -2.301911e-07
-0.122568 -2.532430e-07
-0.122318 -2.761706e-07
-0.122068 -2.989665e-07
-0.121818 -3.216231e-07
-0.121568 -3.441331e-07
-0.121318 -3.664890e-07
-0.121068 -3.886836e-07
-0.120818 -4.107097e-07
-0.120568 -4.325599e-07
-0.120318 -4.542274e-07
-0.120068 -4.757049e-07
-0.119818 -4.969855e-07
-0.119568 -5.180624e-07
-0.119318 -5.389286e-07
-0.119068 -5.595775e-07
-0.118818 -5.800023e-07
-0.118568 -6.001965e-07
-0.118318 -6.201535e-07
-0.118068 -6.398670e-07
-0.117818 -6.593305e-07
-0.117568 -6.785379e-07
-0.117318 -6.974829e-07
-0.117068 -7.161596e-07
-0.116818 -7.345619e-07
-0.116568 -7.526839e-07
-0.116318 -7.705200e-07
-0.116068 -7.880644e-07
-0.115818 -8.053116e-07
-0.115568 -8.222560e-07
-0.115318 -8.388924e-07
-0.115068 -8.552154e-07
-0.114818 -8.712200e-07
-0.114568 -8.869011e-07
-0.114318 -9.022537e-07
-0.114068 -9.172732e-07
-0.113818 -9.319547e-07
-0.113568 -9.462937e-07
-0.113318 -9.602857e-07
-0.113068 -9.739265e-07
-0.112818 -9.872118e-07
-0.112568 -1.000137e-06
-0.112318 -1.012700e-06
-0.112068 -1.024894e-06
-0.111818 -1.036718e-06
-0.111568 -1.048167e-06
-0.111318 -1.059238e-06
-0.111068 -1.069927e-06
-0.110818 -1.080231e-06
-0.110568 -1.090148e-06
-0.110318 -1.099674e-06
-0.110068 -1.108806e-06
-0.109818 -1.117543e-06
-0.109568 -1.125880e-06
-0.109318 -1.133816e-06
-0.109068 -1.141349e-06
-0.108818 -1.148477e-06
-0.108568 -1.155196e-06
-0.108318 -1.161507e-06
-0.108068 -1.167406e-06
-0.107818 -1.172893e-06
-0.107568 -1.177965e-06
-0.107318 -1.182622e-06
-0.107068 -1.186862e-06
-0.106818 -1.190685e-06
-0.106568 -1.194089e-06
-0.106318 -1.197074e-06
-0.106068 -1.199638e-06
-0.105818 -1.201783e-06
-0.105568 -1.203507e-06
-0.105318 -1.204810e-06
-0.105068 -1.205692e-06
-0.104818 -1.206153e-06
-0.104568 -1.206194e-06
-0.104318 -1.205814e-06
-0.104068 -1.205015e-06
-0.103818 -1.203797e-06
-0.103568 -1.202160e-06
-0.103318 -1.200107e-06
-0.103068 -1.197637e-06
-0.102818 -1.194751e-06
-0.102568 -1.191453e-06
-0.102318 -1.187742e-06
-0.102068 -1.183620e-06
-0.101818 -1.179090e-06
-0.101568 -1.174152e-06
-0.101318 -1.168810e-06
-0.101068 -1.163065e-06
-0.100818 -1.156919e-06
-0.100568 -1.150375e-06
-0.100318 -1.143436e-06
-0.100068 -1.136104e-06
-0.099818 -1.128381e-06
-0.099568 -1.120272e-06
-0.099318 -1.111778e-06
-0.099068 -1.102904e-06
-0.098818 -1.093652e-06
-0.098568 -1.084025e-06
-0.098318 -1.074028e-06
-0.098068 -1.063664e-06
-0.097818 -1.052937e-06
-0.097568 -1.041850e-06
-0.097318 -1.030409e-06
-0.097068 -1.018616e-06
-0.096818 -1.006476e-06
-0.096568 -9.939932e-07
-0.096318 -9.811726e-07
-0.096068 -9.680185e-07
-0.095818 -9.545355e-07
-0.095568 -9.407285e-07
-0.095318 -9.266023e-07
-0.095068 -9.121619e-07
-0.094818 -8.974124e-07
-0.094568 -8.823589e-07
-0.094318 -8.670069e-07
-0.094068 -8.513616e-07
-0.093818 -8.354285e-07
-0.093568 -8.192131e-07
-0.093318 -8.027212e-07
-0.093068 -7.859585e-07
-0.092818 -7.689307e-07
-0.092568 -7.516438e-07
-0.092318 -7.341038e-07
-0.092068 -7.163167e-07
-0.091818 -6.982886e-07
-0.091568 -6.800258e-07
-0.091318 -6.615346e-07
-0.091068 -6.428212e-07
-0.090818 -6.238922e-07
-0.090568 -6.047540e-07
-0.090318 -5.854132e-07
-0.090068 -5.658763e-07
-0.089818 -5.461501e-07
-0.089568 -5.262413e-07
-0.089318 -5.061566e-07
-0.089068 -4.859029e-07
-0.088818 -4.654871e-07
-0.088568 -4.449161e-07
-0.088318 -4.241969e-07
-0.088068 -4.033365e-07
-0.087818 -3.823419e-07
-0.087568 -3.612203e-07
-0.087318 -3.399788e-07
-0.087068 -3.186245e-07
-0.086818 -2.971647e-07
-0.086568 -2.756065e-07
-0.086318 -2.539573e-07
-0.086068 -2.322243e-07
-0.085818 -2.104147e-07
-0.085568 -1.885360e-07
-0.085318 -1.665954e-07
-0.085068 -1.446003e-07
-0.084818 -1.225581e-07
-0.084568 -1.004760e-07
-0.084318 -7.836151e-08
-0.084068 -5.622197e-08
-0.083818 -3.406475e-08
-0.083568 -1.189723e-08
-0.083318 1.027323e-08
-0.083068 3.243925e-08
-0.082818 5.459348e-08
-0.082568 7.672857e-08
-0.082318 9.883719e-08
-0.082068 1.209120e-07
-0.081818 1.429458e-07
-0.081568 1.649311e-07
-0.081318 1.868609e-07
-0.081068 2.087278e-07
-0.080818 2.305246e-07
-0.080568 2.522442e-07
-0.080318 2.738794e-07
-0.080068 2.954232e-07
-0.079818 3.168683e-07
-0.079568 3.382079e-07
-0.079318 3.594350e-07
-0.079068 3.805425e-07
-0.078818 4.015235e-07
-0.078568 4.223713e-07
-0.078318 4.430790e-07
-0.078068 4.636399e-07
-0.077818 4.840473e-07
-0.077568 5.042945e-07
-0.077318 5.243750e-07
-0.077068 5.442823e-07
-0.076818 5.640098e-07
-0.076568 5.835513e-07
-0.076318 6.029003e-07
-0.076068 6.220507e-07
-0.075818 6.409963e-07
-0.075568 6.597309e-07
-0.075318 6.782485e-07
-0.075068 6.965432e-07
-0.074818 7.146091e-07
-0.074568 7.324405e-07
-0.074318 7.500315e-07
-0.074068 7.673766e-07
-0.073818 7.844703e-07
-0.073568 8.013070e-07
-0.073318 8.178815e-07
-0.073068 8.341884e-07
-0.072818 8.502227e-07
-0.072568 8.659791e-07
-0.072318 8.814528e-07
-0.072068 8.966388e-07
-0.071818 9.115324e-07
-0.071568 9.261289e-07
-0.071318 9.404237e-07
-0.071068 9.544123e-07
-0.070818 9.680904e-07
-0.070568 9.814537e-07
-0.070318 9.944980e-07
-0.070068 1.007219e-06
-0.069818 1.019614e-06
-0.069568 1.031677e-06
-0.069318 1.043406e-06
-0.069068 1.054797e-06
-0.068818 1.065847e-06
-0.068568 1.076552e-06
-0.068318 1.086908e-06
-0.068068 1.096913e-06
-0.067818 1.106564e-06
-0.067568 1.115857e-06
-0.067318 1.124791e-06
-0.067068 1.133362e-06
-0.066818 1.141568e-06
-0.066568 1.149406e-06
-0.066318 1.156875e-06
-0.066068 1.163972e-06
-0.065818 1.170694e-06
-0.065568 1.177041e-06
-0.065318 1.183010e-06
-0.065068 1.188599e-06
-0.064818 1.193808e-06
-0.064568 1.198635e-06
-0.064318 1.203078e-06
-0.064068 1.207136e-06
-0.063818 1.210809e-06
-0.063568 1.214095e-06
-0.063318 1.216994e-06
-0.063068 1.219504e-06
-0.062818 1.221627e-06
-0.062568 1.223360e-06
-0.062318 1.224705e-06
-0.062068 1.225660e-06
-0.061818 1.226227e-06
-0.061568 1.226404e-06
-0.061318 1.226192e-06
-0.061068 1.225593e-06
-0.060818 1.224605e-06
-0.060568 1.223231e-06
-0.060318 1.221470e-06
-0.060068 1.219323e-06
-0.059818 1.216792e-06
-0.059568 1.213878e-06
-0.059318 1.210582e-06
-0.059068 1.206906e-06
-0.058818 1.202851e-06
-0.058568 1.198418e-06
-0.058318 1.193610e-06
-0.058068 1.188428e-06
-0.057818 1.182874e-06
-0.057568 1.176952e-06
-0.057318 1.170662e-06
-0.057068 1.164007e-06
-0.056818 1.156990e-06
-0.056568 1.149614e-06
-0.056318 1.141880e-06
-0.056068 1.133793e-06
-0.055818 1.125354e-06
-0.055568 1.116568e-06
-0.055318 1.107437e-06
-0.055068 1.097965e-06
-0.054818 1.088154e-06
-0.054568 1.078009e-06
-0.054318 1.067533e-06
-0.054068 1.056730e-06
-0.053818 1.045604e-06
-0.053568 1.034159e-06
-0.053318 1.022398e-06
-0.053068 1.010326e-06
-0.052818 9.979479e-07
-0.052568 9.852668e-07
-0.052318 9.722877e-07
-0.052068 9.590151e-07
-0.051818 9.454537e-07
-0.051568 9.316080e-07
-0.051318 9.174831e-07
-0.051068 9.030837e-07
-0.050818 8.884149e-07
-0.050568 8.734818e-07
-0.050318 8.582894e-07
-0.050068 8.428431e-07
-0.049818 8.271481e-07
-0.049568 8.112098e-07
-0.049318 7.950337e-07
-0.049068 7.786254e-07
-0.048818 7.619904e-07
-0.048568 7.451344e-07
-0.048318 7.280633e-07
-0.048068 7.107827e-07
-0.047818 6.932987e-07
-0.047568 6.756170e-07
-0.047318 6.577438e-07
-0.047068 6.396850e-07
-0.046818 6.214469e-07
-0.046568 6.030355e-07
-0.046318 5.844572e-07
-0.046068 5.657180e-07
-0.045818 5.468245e-07
-0.045568 5.277829e-07
-0.045318 5.085996e-07
-0.045068 4.892812e-07
-0.044818 4.698340e-07
-0.044568 4.502646e-07
-0.044318 4.305796e-07
-0.044068 4.107855e-07
-0.043818 3.908889e-07
-0.043568 3.708966e-07
-0.043318 3.508152e-07
-0.043068 3.306513e-07
-0.042818 3.104117e-07
-0.042568 2.901031e-07
-0.042318 2.697324e-07
-0.042068 2.493061e-07
-0.041818 2.288312e-07
-0.041568 2.083144e-07
-0.041318 1.877625e-07
-0.041068 1.671823e-07
-0.040818 1.465807e-07
-0.040568 1.259643e-07
-0.040318 1.053401e-07
-0.040068 8.471477e-08
-0.039818 6.409518e-08
-0.039568 4.348810e-08
-0.039318 2.290029e-08
-0.039068 2.338537e-09
-0.038818 -1.819042e-08
-0.038568 -3.867986e-08
-0.038318 -5.912305e-08
-0.038068 -7.951331e-08
-0.037818 -9.984397e-08
-0.037568 -1.201084e-07
-0.037318 -1.402999e-07
-0.037068 -1.604120e-07
-0.036818 -1.804381e-07
-0.036568 -2.003717e-07
-0.036318 -2.202063e-07
-0.036068 -2.399355e-07
-0.035818 -2.595528e-07
-0.035568 -2.790519e-07
-0.035318 -2.984265e-07
-0.035068 -3.176703e-07
-0.034818 -3.367770e-07
-0.034568 -3.557406e-07
-0.034318 -3.745549e-07
-0.034068 -3.932138e-07
-0.033818 -4.117114e-07
-0.033568 -4.300417e-07
-0.033318 -4.481987e-07
-0.033068 -4.661767e-07
-0.032818 -4.839700e-07
-0.032568 -5.015728e-07
-0.032318 -5.189794e-07
-0.032068 -5.361844e-07
-0.031818 -5.531823e-07
-0.031568 -5.699676e-07
-0.031318 -5.865350e-07
-0.031068 -6.028793e-07
-0.030818 -6.189952e-07
-0.030568 -6.348777e-07
-0.030318 -6.505217e-07
-0.030068 -6.659224e-07
-0.029818 -6.810747e-07
-0.029568 -6.959741e-07
-0.029318 -7.106158e-07
-0.029068 -7.249952e-07
-0.028818 -7.391078e-07
-0.028568 -7.529492e-07
-0.028318 -7.665152e-07
-0.028068 -7.798014e-07
-0.027818 -7.928037e-07
-0.027568 -8.055182e-07
-0.027318 -8.179409e-07
-0.027068 -8.300679e-07
-0.026818 -8.418956e-07
-0.026568 -8.534203e-07
-0.026318 -8.646385e-07
-0.026068 -8.755467e-07
-0.025818 -8.861417e-07
-0.025568 -8.964203e-07
-0.025318 -9.063793e-07
-0.025068 -9.160158e-07
-0.024818 -9.253268e-07
-0.024568 -9.343097e-07
-0.024318 -9.429616e-07
-0.024068 -9.512802e-07
-0.023818 -9.592629e-07
-0.023568 -9.669074e-07
-0.023318 -9.742115e-07
-0.023068 -9.811732e-07
-0.022818 -9.877903e-07
-0.022568 -9.940611e-07
-0.022318 -9.999837e-07
-0.022068 -1.005557e-06
-0.021818 -1.010778e-06
-0.021568 -1.015647e-06
-0.021318 -1.020162e-06
-0.021068 -1.024322e-06
-0.020818 -1.028126e-06
-0.020568 -1.031572e-06
-0.020318 -1.034661e-06
-0.020068 -1.037391e-06
-0.019818 -1.039762e-06
-0.019568 -1.041773e-06
-0.019318 -1.043424e-06
-0.019068 -1.044715e-06
-0.018818 -1.045645e-06
-0.018568 -1.046215e-06
-0.018318 -1.046425e-06
-0.018068 -1.046275e-06
-0.017818 -1.045766e-06
-0.017568 -1.044897e-06
-0.017318 -1.043670e-06
-0.017068 -1.042085e-06
-0.016818 -1.040143e-06
-0.016568 -1.037845e-06
-0.016318 -1.035193e-06
-0.016068 -1.032186e-06
-0.015818 -1.028827e-06
-0.015568 -1.025118e-06
-0.015318 -1.021058e-06
-0.015068 -1.016651e-06
-0.014818 -1.011898e-06
-0.014568 -1.006801e-06
-0.014318 -1.001361e-06
-0.014068 -9.955819e-07
-0.013818 -9.894644e-07
-0.013568 -9.830113e-07
-0.013318 -9.762250e-07
-0.013068 -9.691081e-07
-0.012818 -9.616632e-07
-0.012568 -9.538930e-07
-0.012318 -9.458004e-07
-0.012068 -9.373883e-07
-0.011818 -9.286597e-07
-0.011568 -9.196179e-07
-0.011318 -9.102660e-07
-0.011068 -9.006075e-07
-0.010818 -8.906457e-07
-0.010568 -8.803843e-07
-0.010318 -8.698267e-07
-0.010068 -8.589769e-07
-0.009818 -8.478386e-07
-0.009568 -8.364157e-07
-0.009318 -8.247122e-07
-0.009068 -8.127323e-07
-0.008818 -8.004800e-07
-0.008568 -7.879598e-07
-0.008318 -7.751759e-07
-0.008068 -7.621327e-07
-0.007818 -7.488349e-07
-0.007568 -7.352869e-07
-0.007318 -7.214935e-07
-0.007068 -7.074593e-07
-0.006818 -6.931894e-07
-0.006568 -6.786884e-07
-0.006318 -6.639615e-07
-0.006068 -6.490136e-07
-0.005818 -6.338498e-07
-0.005568 -6.184754e-07
-0.005318 -6.028955e-07
-0.005068 -5.871155e-07
-0.004818 -5.711408e-07
-0.004568 -5.549767e-07
-0.004318 -5.386287e-07
-0.004068 -5.221024e-07
-0.003818 -5.054033e-07
-0.003568 -4.885372e-07
-0.003318 -4.715096e-07
-0.003068 -4.543264e-07
-0.002818 -4.369932e-07
-0.002568 -4.195160e-07
-0.002318 -4.019006e-07
-0.002068 -3.841530e-07
-0.001818 -3.662790e-07
-0.001568 -3.482846e-07
-0.001318 -3.301759e-07
-0.001068 -3.119590e-07
-0.000818 -2.936398e-07
-0.000568 -2.752246e-07
-0.000318 -2.567194e-07
-0.000068 -2.381304e-07
0.000182 -2.194638e-07
0.000432 -2.007257e-07
0.000682 -1.819225e-07
0.000932 -1.630604e-07
0.001182 -1.441455e-07
0.001432 -1.251842e-07
0.001682 -1.061827e-07
0.001932 -8.714730e-08
0.002182 -6.808430e-08
0.002432 -4.899996e-08
0.002682 -2.990059e-08
0.002932 -1.079247e-08
0.003182 8.318112e-09
0.003432 2.742488e-08
0.003682 4.652157e-08
0.003932 6.560190e-08
0.004182 8.465962e-08
0.004432 1.036885e-07
0.004682 1.226823e-07
0.004932 1.416348e-07
0.005182 1.605399e-07
0.005432 1.793913e-07
0.005682 1.981829e-07
0.005932 2.169086e-07
0.006182 2.355624e-07
0.006432 2.541380e-07
0.006682 2.726296e-07
0.006932 2.910311e-07
0.007182 3.093365e-07
0.007432 3.275399e-07
0.007682 3.456354e-07
0.007932 3.636172e-07
0.008182 3.814795e-07
0.008432 3.992165e-07
0.008682 4.168224e-07
0.008932 4.342917e-07
0.009182 4.516187e-07
0.009432 4.687978e-07
0.009682 4.858235e-07
0.009932 5.026903e-07
0.010182 5.193930e-07
0.010432 5.359260e-07
0.010682 5.522842e-07
0.010932 5.684623e-07
0.011182 5.844551e-07
0.011432 6.002576e-07
0.011682 6.158648e-07
0.011932 6.312716e-07
0.012182 6.464732e-07
0.012432 6.614648e-07
0.012682 6.762417e-07
0.012932 6.907991e-07
0.013182 7.051325e-07
0.013432 7.192373e-07
0.013682 7.331093e-07
0.013932 7.467438e-07
0.014182 7.601368e-07
0.014432 7.732840e-07
0.014682 7.861814e-07
0.014932 7.988248e-07
0.015182 8.112104e-07
0.015432 8.233342e-07
0.015682 8.351927e-07
0.015932 8.467820e-07
0.016182 8.580987e-07
0.016432 8.691392e-07
0.016682 8.799001e-07
0.016932 8.903782e-07
0.017182 9.005703e-07
0.017432 9.104732e-07
0.017682 9.200840e-07
0.017932 9.293997e-07
0.018182 9.384175e-07
0.018432 9.471348e-07
0.018682 9.555489e-07
0.018932 9.636573e-07
0.019182 9.714576e-07
0.019432 9.789476e-07
0.019682 9.861250e-07
0.019932 9.929877e-07
0.020182 9.995338e-07
0.020432 1.005761e-06
0.020682 1.011669e-06
0.020932 1.017254e-06
0.021182 1.022515e-06
0.021432 1.027452e-06
0.021682 1.032063e-06
0.021932 1.036345e-06
0.022182 1.040299e-06
0.022432 1.043924e-06
0.022682 1.047218e-06
0.022932 1.050180e-06
0.023182 1.052810e-06
0.023432 1.055107e-06
0.023682 1.057072e-06
0.023932 1.058702e-06
0.024182 1.059999e-06
0.024432 1.060962e-06
0.024682 1.061591e-06
0.024932 1.061886e-06
0.025182 1.061847e-06
0.025432 1.061475e-06
0.025682 1.060769e-06
0.025932 1.059731e-06
0.026182 1.058361e-06
0.026432 1.056660e-06
0.026682 1.054629e-06
0.026932 1.052268e-06
0.027182 1.049579e-06
0.027432 1.046562e-06
0.027682 1.043219e-06
0.027932 1.039552e-06
0.028182 1.035562e-06
0.028432 1.031250e-06
0.028682 1.026618e-06
0.028932 1.021668e-06
0.029182 1.016402e-06
0.029432 1.010821e-06
0.029682 1.004929e-06
0.029932 9.987261e-07
0.030182 9.922158e-07
0.030432 9.854002e-07
0.030682 9.782817e-07
0.030932 9.708629e-07
0.031182 9.631466e-07
0.031432 9.551354e-07
0.031682 9.468324e-07
0.031932 9.382403e-07
0.032182 9.293623e-07
0.032432 9.202014e-07
0.032682 9.107610e-07
0.032932 9.010444e-07
0.033182 8.910549e-07
0.033432 8.807960e-07
0.033682 8.702713e-07
0.033932 8.594846e-07
0.034182 8.484394e-07
0.034432 8.371397e-07
0.034682 8.255893e-07
0.034932 8.137923e-07
0.035182 8.017527e-07
0.035432 7.894745e-07
0.035682 7.769621e-07
0.035932 7.642198e-07
0.036182 7.512518e-07
0.036432 7.380625e-07
0.036682 7.246566e-07
0.036932 7.110385e-07
0.037182 6.972129e-07
0.037432 6.831844e-07
0.037682 6.689579e-07
0.037932 6.545381e-07
0.038182 6.399298e-07
0.038432 6.251381e-07
0.038682 6.101678e-07
0.038932 5.950241e-07
0.039182 5.797120e-07
0.039432 5.642367e-07
0.039682 5.486034e-07
0.039932 5.328172e-07
0.040182 5.168835e-07
0.040432 5.008076e-07
0.040682 4.845948e-07
0.040932 4.682506e-07
0.041182 4.517804e-07
0.041432 4.351897e-07
0.041682 4.184840e-07
0.041932 4.016689e-07
0.042182 3.847499e-07
0.042432 3.677326e-07
0.042682 3.506228e-07
0.042932 3.334259e-07
0.043182 3.161478e-07
0.043432 2.987941e-07
0.043682 2.813706e-07
0.043932 2.638829e-07
0.044182 2.463369e-07
0.044432 2.287384e-07
0.044682 2.110930e-07
0.044932 1.934067e-07
0.045182 1.756851e-07
0.045432 1.579342e-07
0.045682 1.401598e-07
0.045932 1.223676e-07
0.046182 1.045634e-07
0.046432 8.675320e-08
0.046682 6.894266e-08
0.046932 5.113764e-08
0.047182 3.334394e-08
0.047432 1.556734e-08
0.047682 -2.186360e-09
0.047932 -1.991140e-08
0.048182 -3.760202e-08
0.048432 -5.525249e-08
0.048682 -7.285707e-08
0.048932 -9.041008e-08
0.049182 -1.079058e-07
0.049432 -1.253386e-07
0.049682 -1.427029e-07
0.049932 -1.599931e-07
0.050182 -1.772035e-07
0.050432 -1.943286e-07
0.050682 -2.113630e-07
0.050932 -2.283011e-07
0.051182 -2.451375e-07
0.051432 -2.618668e-07
0.051682 -2.784836e-07
0.051932 -2.949827e-07
0.052182 -3.113587e-07
0.052432 -3.276064e-07
0.052682 -3.437207e-07
0.052932 -3.596963e-07
0.053182 -3.755282e-07
0.053432 -3.912114e-07
0.053682 -4.067408e-07
0.053932 -4.221116e-07
0.054182 -4.373189e-07
0.054432 -4.523577e-07
0.054682 -4.672235e-07
0.054932 -4.819115e-07
0.055182 -4.964170e-07
0.055432 -5.107356e-07
0.055682 -5.248626e-07
0.055932 -5.387936e-07
0.056182 -5.525243e-07
0.056432 -5.660504e-07
0.056682 -5.793676e-07
0.056932 -5.924718e-07
0.057182 -6.053588e-07
0.057432 -6.180247e-07
0.057682 -6.304656e-07
0.057932 -6.426775e-07
0.058182 -6.546567e-07
0.058432 -6.663995e-07
0.058682 -6.779023e-07
0.058932 -6.891615e-07
0.059182 -7.001736e-07
0.059432 -7.109353e-07
0.059682 -7.214433e-07
0.059932 -7.316944e-07
0.060182 -7.416854e-07
0.060432 -7.514134e-07
0.060682 -7.608754e-07
0.060932 -7.700685e-07
0.061182 -7.789900e-07
0.061432 -7.876371e-07
0.061682 -7.960074e-07
0.061932 -8.040983e-07
0.062182 -8.119074e-07
0.062432 -8.194325e-07
0.062682 -8.266713e-07
0.062932 -8.336217e-07
0.063182 -8.402816e-07
0.063432 -8.466493e-07
0.063682 -8.527228e-07
0.063932 -8.585004e-07
0.064182 -8.639805e-07
0.064432 -8.691616e-07
0.064682 -8.740422e-07
0.064932 -8.786210e-07
0.065182 -8.828968e-07
0.065432 -8.868685e-07
0.065682 -8.905349e-07
0.065932 -8.938952e-07
0.066182 -8.969486e-07
0.066432 -8.996942e-07
0.066682 -9.021316e-07
0.066932 -9.042601e-07
0.067182 -9.060793e-07
0.067432 -9.075890e-07
0.067682 -9.087888e-07
0.067932 -9.096786e-07
0.068182 -9.102585e-07
0.068432 -9.105285e-07
0.068682 -9.104888e-07
0.068932 -9.101396e-07
0.069182 -9.094814e-07
0.069432 -9.085147e-07
0.069682 -9.072399e-07
0.069932 -9.056578e-07
0.070182 -9.037692e-07
0.070432 -9.015749e-07
0.070682 -8.990759e-07
0.070932 -8.962734e-07
0.071182 -8.931684e-07
0.071432 -8.897622e-07
0.071682 -8.860563e-07
0.071932 -8.820520e-07
0.072182 -8.777510e-07
0.072432 -8.731549e-07
0.072682 -8.682654e-07
0.072932 -8.630844e-07
0.073182 -8.576138e-07
0.073432 -8.518557e-07
0.073682 -8.458121e-07
0.073932 -8.394854e-07
0.074182 -8.328777e-07
0.074432 -8.259916e-07
0.074682 -8.188294e-07
0.074932 -8.113937e-07
0.075182 -8.036873e-07
0.075432 -7.957127e-07
0.075682 -7.874730e-07
0.075932 -7.789709e-07
0.076182 -7.702095e-07
0.076432 -7.611918e-07
0.076682 -7.519211e-07
0.076932 -7.424005e-07
0.077182 -7.326333e-07
0.077432 -7.226230e-07
0.077682 -7.123729e-07
0.077932 -7.018868e-07
0.078182 -6.911681e-07
0.078432 -6.802206e-07
0.078682 -6.690480e-07
0.078932 -6.576541e-07
0.079182 -6.460429e-07
0.079432 -6.342183e-07
0.079682 -6.221844e-07
0.079932 -6.099452e-07
0.080182 -5.975050e-07
0.080432 -5.848678e-07
0.080682 -5.720381e-07
0.080932 -5.590201e-07
0.081182 -5.458183e-07
0.081432 -5.324371e-07
0.081682 -5.188811e-07
0.081932 -5.051547e-07
0.082182 -4.912626e-07
0.082432 -4.772094e-07
0.082682 -4.630000e-07
0.082932 -4.486390e-07
0.083182 -4.341312e-07
0.083432 -4.194815e-07
0.083682 -4.046948e-07
0.083932 -3.897760e-07
0.084182 -3.747301e-07
0.084432 -3.595621e-07
0.084682 -3.442770e-07
0.084932 -3.288799e-07
0.085182 -3.133759e-07
0.085432 -2.977702e-07
0.085682 -2.820678e-07
0.085932 -2.662741e-07
0.086182 -2.503943e-07
0.086432 -2.344335e-07
0.086682 -2.183970e-07
0.086932 -2.022902e-07
0.087182 -1.861182e-07
0.087432 -1.698866e-07
0.087682 -1.536005e-07
0.087932 -1.372653e-07
0.088182 -1.208865e-07
0.088432 -1.044693e-07
0.088682 -8.801909e-08
0.088932 -7.154133e-08
0.089182 -5.504138e-08
0.089432 -3.852463e-08
0.089682 -2.199646e-08
0.089932 -5.462272e-09
0.090182 1.107255e-08
0.090432 2.760262e-08
0.090682 4.412257e-08
0.090932 6.062702e-08
0.091182 7.711061e-08
0.091432 9.356799e-08
0.091682 1.099938e-07
0.091932 1.263828e-07
0.092182 1.427296e-07
0.092432 1.590290e-07
0.092682 1.752756e-07
0.092932 1.914643e-07
0.093182 2.075897e-07
0.093432 2.236468e-07
0.093682 2.396303e-07
0.093932 2.555351e-07
0.094182 2.713561e-07
0.094432 2.870882e-07
0.094682 3.027263e-07
0.094932 3.182655e-07
0.095182 3.337007e-07
0.095432 3.490270e-07
0.095682 3.642395e-07
0.095932 3.793334e-07
0.096182 3.943038e-07
0.096432 4.091459e-07
0.096682 4.238551e-07
0.096932 4.384266e-07
0.097182 4.528558e-07
0.097432 4.671382e-07
0.097682 4.812691e-07
0.097932 4.952441e-07
0.098182 5.090587e-07
0.098432 5.227087e-07
0.098682 5.361896e-07
0.098932 5.494973e-07
0.099182 5.626275e-07
0.099432 5.755760e-07
0.099682 5.883389e-07
0.099932 6.009120e-07
0.100182 6.132914e-07
0.100432 6.254733e-07
0.100682 6.374538e-07
0.100932 6.492292e-07
0.101182 6.607958e-07
0.101432 6.721499e-07
0.101682 6.832880e-07
0.101932 6.942067e-07
0.102182 7.049025e-07
0.102432 7.153722e-07
0.102682 7.256124e-07
0.102932 7.356200e-07
0.103182 7.453918e-07
0.103432 7.549249e-07
0.103682 7.642164e-07
0.103932 7.732632e-07
0.104182 7.820628e-07
0.104432 7.906122e-07
0.104682 7.989090e-07
0.104932 8.069505e-07
0.105182 8.147343e-07
0.105432 8.222581e-07
0.105682 8.295194e-07
0.105932 8.365162e-07
0.106182 8.432462e-07
0.106432 8.497074e-07
0.106682 8.558979e-07
0.106932 8.618157e-07
0.107182 8.674591e-07
0.107432 8.728264e-07
0.107682 8.779159e-07
0.107932 8.827261e-07
0.108182 8.872555e-07
0.108432 8.915029e-07
0.108682 8.954669e-07
0.108932 8.991462e-07
0.109182 9.025399e-07
0.109432 9.056469e-07
0.109682 9.084662e-07
0.109932 9.109971e-07
0.110182 9.132387e-07
0.110432 9.151904e-07
0.110682 9.168515e-07
0.110932 9.182216e-07
0.111182 9.193003e-07
0.111432 9.200872e-07
0.111682 9.205820e-07
0.111932 9.207846e-07
0.112182 9.206950e-07
0.112432 9.203130e-07
0.112682 9.196387e-07
0.112932 9.186724e-07
0.113182 9.174142e-07
0.113432 9.158645e-07
0.113682 9.140236e-07
0.113932 9.118921e-07
0.114182 9.094703e-07
0.114432 9.067590e-07
0.114682 9.037589e-07
0.114932 9.004707e-07
0.115182 8.968952e-07
0.115432 8.930333e-07
0.115682 8.888861e-07
0.115932 8.844545e-07
0.116182 8.797395e-07
0.116432 8.747425e-07
0.116682 8.694646e-07
0.116932 8.639071e-07
0.117182 8.580713e-07
0.117432 8.519586e-07
0.117682 8.455704e-07
0.117932 8.389083e-07
0.118182 8.319739e-07
0.118432 8.247686e-07
0.118682 8.172941e-07
0.118932 8.095521e-07
0.119182 8.015444e-07
0.119432 7.932727e-07
0.119682 7.847387e-07
0.119932 7.759443e-07
0.120182 7.668913e-07
0.120432 7.575816e-07
0.120682 7.480171e-07
0.120932 7.381997e-07
0.121182 7.281314e-07
0.121432 7.178140e-07
0.121682 7.072495e-07
0.121932 6.964398e-07
0.122182 6.853869e-07
0.122432 6.740928e-07
0.122682 6.625593e-07
0.122932 6.507884e-07
0.123182 6.387820e-07
0.123432 6.265420e-07
0.123682 6.140701e-07
0.123932 6.013684e-07
0.124182 5.884384e-07
0.124432 5.752820e-07
0.124682 5.619008e-07
0.124932 5.482965e-07
0.125182 5.344707e-07
0.125432 5.204249e-07
0.125682 5.061604e-07
0.125932 4.916788e-07
0.126182 4.769812e-07
0.126432 4.620689e-07
0.126682 4.469429e-07
0.126932 4.316043e-07
0.127182 4.160538e-07
0.127432 4.002923e-07
0.127682 3.843203e-07
0.127932 3.681383e-07
0.128182 3.517468e-07
0.128432 3.351457e-07
0.128682 3.183353e-07
0.128932 3.013152e-07
0.129182 2.840852e-07
0.129432 2.666447e-07
0.129682 2.489931e-07
0.129932 2.311293e-07
0.130182 2.130521e-07
0.130432 1.947602e-07
0.130682 1.762520e-07
0.130932 1.575254e-07
0.131182 1.385783e-07
0.131432 1.194082e-07
0.131682 1.000124e-07
0.131932 8.038770e-08
0.132182 6.053079e-08
0.132432 4.043790e-08
0.132682 2.010491e-08
0.132932 -4.726358e-10
0.133182 -2.129961e-08
0.133432 -4.238126e-08
0.133682 -6.372327e-08
0.133932 -8.533176e-08
0.134182 -1.072133e-07
0.134432 -1.293749e-07
0.134682 -1.518241e-07
0.134932 -1.745690e-07
0.135182 -1.976180e-07
0.135432 -2.209804e-07
0.135682 -2.446659e-07
0.135932 -2.686846e-07
0.136182 -2.930476e-07
0.136432 -3.177664e-07
0.136682 -3.428531e-07
0.136932 -3.683207e-07
0.137182 -3.941827e-07
0.137432 -4.204536e-07
0.137682 -4.471484e-07
0.137932 -4.742831e-07
0.138182 -5.018743e-07
0.138432 -5.299397e-07
0.138682 -5.584977e-07
0.138932 -5.875678e-07
0.139182 -6.171701e-07
0.139432 -6.473261e-07
0.139682 -6.780581e-07
0.139932 -7.093893e-07
0.140182 -7.413443e-07
0.140432 -7.739486e-07
0.140682 -8.072290e-07
0.140932 -8.412132e-07
0.141182 -8.759306e-07
0.141432 -9.114115e-07
0.141682 -9.476876e-07
0.141932 -9.847921e-07
0.142182 -1.022759e-06
0.142432 -1.061626e-06
0.142682 -1.101428e-06
0.142932 -1.142206e-06
0.143182 -1.184000e-06
0.143432 -1.226851e-06
0.143682 -1.270805e-06
0.143932 -1.315907e-06
0.144182 -1.362204e-06
0.144432 -1.409745e-06
0.144682 -1.458583e-06
0.144932 -1.508770e-06
0.145182 -1.560361e-06
0.145432 -1.613414e-06
0.145682 -1.667989e-06
0.145932 -1.724147e-06
0.146182 -1.781953e-06
0.146432 -1.841473e-06
0.146682 -1.902775e-06
0.146932 -1.965932e-06
0.147182 -2.031017e-06
0.147432 -2.098107e-06
0.147682 -2.167282e-06
0.147932 -2.238623e-06
0.148182 -2.312216e-06
0.148432 -2.388149e-06
0.148682 -2.466513e-06
0.148932 -2.547402e-06
0.149182 -2.630915e-06
0.149432 -2.717151e-06
0.149682 -2.806216e-06
0.149932 -2.898217e-06
0.150182 -2.993265e-06
0.150432 -3.091476e-06
0.150682 -3.192969e-06
0.150932 -3.297867e-06
0.151182 -3.406297e-06
0.151432 -3.518389e-06
0.151682 -3.634279e-06
0.151932 -3.754108e-06
0.152182 -3.878018e-06
0.152432 -4.006160e-06
0.152682 -4.138685e-06
0.152932 -4.275754e-06
0.153182 -4.417528e-06
0.153432 -4.564177e-06
0.153682 -4.715873e-06
0.153932 -4.872797e-06
0.154182 -5.035131e-06
0.154432 -5.203067e-06
0.154682 -5.376799e-06
0.154932 -5.556530e-06
0.155182 -5.742467e-06
0.155432 -5.934825e-06
0.155682 -6.133822e-06
0.155932 -6.339687e-06
0.156182 -6.552652e-06
0.156432 -6.772957e-06
0.156682 -7.000849e-06
0.156932 -7.236583e-06
0.157182 -7.480420e-06
0.157432 -7.732629e-06
0.157682 -7.993485e-06
0.157932 -8.263274e-06
0.158182 -8.542288e-06
0.158432 -8.830827e-06
0.158682 -9.129199e-06
0.158932 -9.437721e-06
0.159182 -9.756720e-06
0.159432 -1.008653e-05
0.159682 -1.042749e-05
0.159932 -1.077997e-05
0.160182 -1.114431e-05
0.160432 -1.152089e-05
0.160682 -1.191009e-05
0.160932 -1.231231e-05
0.161182 -1.272795e-05
0.161432 -1.315741e-05
0.161682 -1.360113e-05
0.161932 -1.405953e-05
0.162182 -1.453306e-05
0.162432 -1.502218e-05
0.162682 -1.552735e-05
0.162932 -1.604905e-05
0.163182 -1.658777e-05
0.163432 -1.714402e-05
0.163682 -1.771831e-05
0.163932 -1.831117e-05
0.164182 -1.892313e-05
0.164432 -1.955476e-05
0.164682 -2.020661e-05
0.164932 -2.087927e-05
0.165182 -2.157334e-05
0.165432 -2.228940e-05
0.165682 -2.302810e-05
0.165932 -2.379006e-05
0.166182 -2.457594e-05
0.166432 -2.538639e-05
0.166682 -2.622210e-05
0.166932 -2.708376e-05
0.167182 -2.797208e-05
0.167432 -2.888779e-05
0.167682 -2.983163e-05
0.167932 -3.080435e-05
0.168182 -3.180673e-05
0.168432 -3.283955e-05
0.168682 -3.390363e-05
0.168932 -3.499979e-05
0.169182 -3.612886e-05
0.169432 -3.729170e-05
0.169682 -3.848919e-05
0.169932 -3.972222e-05
0.170182 -4.099171e-05
0.170432 -4.229856e-05
0.170682 -4.364375e-05
0.170932 -4.502822e-05
0.171182 -4.645296e-05
0.171432 -4.791897e-05
0.171682 -4.942728e-05
0.171932 -5.097891e-05
0.172182 -5.257494e-05
0.172432 -5.421644e-05
0.172682 -5.590450e-05
0.172932 -5.764025e-05
0.173182 -5.942482e-05
0.173432 -6.125936e-05
0.173682 -6.314506e-05
0.173932 -6.508310e-05
0.174182 -6.707471e-05
0.174432 -6.912113e-05
0.174682 -7.122360e-05
0.174932 -7.338342e-05
0.175182 -7.560187e-05
0.175432 -7.788027e-05
0.175682 -8.021997e-05
0.175932 -8.262232e-05
0.176182 -8.508871e-05
0.176432 -8.762054e-05
0.176682 -9.021922e-05
0.176932 -9.288620e-05
0.177182 -9.562294e-05
0.177432 -9.843094e-05
0.177682 -1.013117e-04
0.177932 -1.042667e-04
0.178182 -1.072975e-04
0.178432 -1.104057e-04
0.178682 -1.135929e-04
0.178932 -1.168607e-04
0.179182 -1.202107e-04
0.179432 -1.236445e-04
0.179682 -1.271638e-04
0.179932 -1.307703e-04
0.180182 -1.344657e-04
0.180432 -1.382517e-04
0.180682 -1.421300e-04
0.180932 -1.461025e-04
0.181182 -1.501709e-04
0.181432 -1.543369e-04
0.181682 -1.586024e-04
0.181932 -1.629693e-04
0.182182 -1.674393e-04
0.182432 -1.720143e-04
0.182682 -1.766963e-04
0.182932 -1.814870e-04
0.183182 -1.863884e-04
0.183432 -1.914025e-04
0.183682 -1.965311e-04
0.183932 -2.017762e-04
0.184182 -2.071398e-04
0.184432 -2.126238e-04
0.184682 -2.182303e-04
0.184932 -2.239612e-04
0.185182 -2.298185e-04
0.185432 -2.358042e-04
0.185682 -2.419204e-04
0.185932 -2.481692e-04
0.186182 -2.545524e-04
0.186432 -2.610723e-04
0.186682 -2.677308e-04
0.186932 -2.745300e-04
0.187182 -2.814719e-04