-0.138818 -5.355769e-06
-0.138568 -5.274150e-06
-0.138318 -5.190972e-06
-0.138068 -5.106267e-06
-0.137818 -5.020072e-06
-0.137568 -4.932423e-06
-0.137318 -4.843356e-06
-0.137068 -4.752909e-06
-0.136818 -4.661117e-06
-0.136568 -4.568021e-06
-0.136318 -4.473657e-06
-0.136068 -4.378064e-06
-0.135818 -4.281283e-06
-0.135568 -4.183352e-06
-0.135318 -4.084311e-06
-0.135068 -3.984202e-06
-0.134818 -3.883064e-06
-0.134568 -3.780940e-06
-0.134318 -3.677869e-06
-0.134068 -3.573894e-06
-0.133818 -3.469058e-06
-0.133568 -3.363402e-06
-0.133318 -3.256968e-06
-0.133068 -3.149801e-06
-0.132818 -3.041942e-06
-0.132568 -2.933435e-06
-0.132318 -2.824323e-06
-0.132068 -2.714650e-06
-0.131818 -2.604460e-06
-0.131568 -2.493797e-06
-0.131318 -2.382704e-06
-0.131068 -2.271225e-06
-0.130818 -2.159406e-06
-0.130568 -2.047289e-06
-0.130318 -1.934920e-06
-0.130068 -1.822342e-06
-0.129818 -1.709600e-06
-0.129568 -1.596739e-06
-0.129318 -1.483802e-06
-0.129068 -1.370834e-06
-0.128818 -1.257879e-06
-0.128568 -1.144981e-06
-0.128318 -1.032185e-06
-0.128068 -9.195339e-07
-0.127818 -8.070718e-07
-0.127568 -6.948423e-07
-0.127318 -5.828891e-07
-0.127068 -4.712555e-07
-0.126818 -3.599846e-07
-0.126568 -2.491194e-07
-0.126318 -1.387025e-07
-0.126068 -2.877652e-08
-0.125818 8.061640e-08
-0.125568 1.894343e-07
-0.125318 2.976355e-07
-0.125068 4.051787e-07
-0.124818 5.120228e-07
-0.124568 6.181272e-07
-0.124318 7.234514e-07
-0.124068 8.279556e-07
-0.123818 9.316001e-07
-0.123568 1.034346e-06
-0.123318 1.136154e-06
-0.123068 1.236986e-06
-0.122818 1.336804e-06
-0.122568 1.435571e-06
-0.122318 1.533249e-06
-0.122068 1.629803e-06
-0.121818 1.725195e-06
-0.121568 1.819392e-06
-0.121318 1.912356e-06
-0.121068 2.004055e-06
-0.120818 2.094455e-06
-0.120568 2.183521e-06
-0.120318 2.271222e-06
-0.120068 2.357524e-06
-0.119818 2.442397e-06
-0.119568 2.525809e-06
-0.119318 2.607731e-06
-0.119068 2.688131e-06
-0.118818 2.766982e-06
-0.118568 2.844255e-06
-0.118318 2.919922e-06
-0.118068 2.993956e-06
-0.117818 3.066330e-06
-0.117568 3.137019e-06
-0.117318 3.205997e-06
-0.117068 3.273241e-06
-0.116818 3.338727e-06
-0.116568 3.402432e-06
-0.116318 3.464333e-06
-0.116068 3.524409e-06
-0.115818 3.582640e-06
-0.115568 3.639006e-06
-0.115318 3.693487e-06
-0.115068 3.746065e-06
-0.114818 3.796722e-06
-0.114568 3.845442e-06
-0.114318 3.892209e-06
-0.114068 3.937006e-06
-0.113818 3.979820e-06
-0.113568 4.020638e-06
-0.113318 4.059445e-06
-0.113068 4.096230e-06
-0.112818 4.130982e-06
-0.112568 4.163689e-06
-0.112318 4.194344e-06
-0.112068 4.222936e-06
-0.111818 4.249457e-06
-0.111568 4.273901e-06
-0.111318 4.296261e-06
-0.111068 4.316532e-06
-0.110818 4.334708e-06
-0.110568 4.350786e-06
-0.110318 4.364762e-06
-0.110068 4.376635e-06
-0.109818 4.386402e-06
-0.109568 4.394064e-06
-0.109318 4.399621e-06
-0.109068 4.403073e-06
-0.108818 4.404422e-06
-0.108568 4.403671e-06
-0.108318 4.400824e-06
-0.108068 4.395884e-06
-0.107818 4.388857e-06
-0.107568 4.379749e-06
-0.107318 4.368566e-06
-0.107068 4.355315e-06
-0.106818 4.340006e-06
-0.106568 4.322647e-06
-0.106318 4.303249e-06
-0.106068 4.281820e-06
-0.105818 4.258374e-06
-0.105568 4.232922e-06
-0.105318 4.205478e-06
-0.105068 4.176054e-06
-0.104818 4.144665e-06
-0.104568 4.111328e-06
-0.104318 4.076056e-06
-0.104068 4.038868e-06
-0.103818 3.999780e-06
-0.103568 3.958810e-06
-0.103318 3.915978e-06
-0.103068 3.871303e-06
-0.102818 3.824805e-06
-0.102568 3.776505e-06
-0.102318 3.726424e-06
-0.102068 3.674584e-06
-0.101818 3.621009e-06
-0.101568 3.565722e-06
-0.101318 3.508747e-06
-0.101068 3.450109e-06
-0.100818 3.389832e-06
-0.100568 3.327944e-06
-0.100318 3.264470e-06
-0.100068 3.199438e-06
-0.099818 3.132874e-06
-0.099568 3.064809e-06
-0.099318 2.995269e-06
-0.099068 2.924285e-06
-0.098818 2.851887e-06
-0.098568 2.778104e-06
-0.098318 2.702967e-06
-0.098068 2.626508e-06
-0.097818 2.548758e-06
-0.097568 2.469750e-06
-0.097318 2.389517e-06
-0.097068 2.308090e-06
-0.096818 2.225505e-06
-0.096568 2.141794e-06
-0.096318 2.056992e-06
-0.096068 1.971134e-06
-0.095818 1.884254e-06
-0.095568 1.796388e-06
-0.095318 1.707572e-06
-0.095068 1.617841e-06
-0.094818 1.527232e-06
-0.094568 1.435782e-06
-0.094318 1.343526e-06
-0.094068 1.250504e-06
-0.093818 1.156750e-06
-0.093568 1.062305e-06
-0.093318 9.672037e-07
-0.093068 8.714859e-07
-0.092818 7.751893e-07
-0.092568 6.783522e-07
-0.092318 5.810131e-07
-0.092068 4.832105e-07
-0.091818 3.849833e-07
-0.091568 2.863703e-07
-0.091318 1.874103e-07
-0.091068 8.814255e-08
-0.090818 -1.139406e-08
-0.090568 -1.111604e-07
-0.090318 -2.111172e-07
-0.090068 -3.112254e-07
-0.089818 -4.114459e-07
-0.089568 -5.117394e-07
-0.089318 -6.120669e-07
-0.089068 -7.123893e-07
-0.088818 -8.126676e-07
-0.088568 -9.128628e-07
-0.088318 -1.012936e-06
-0.088068 -1.112849e-06
-0.087818 -1.212562e-06
-0.087568 -1.312038e-06
-0.087318 -1.411238e-06
-0.087068 -1.510123e-06
-0.086818 -1.608656e-06
-0.086568 -1.706799e-06
-0.086318 -1.804515e-06
-0.086068 -1.901766e-06
-0.085818 -1.998514e-06
-0.085568 -2.094724e-06
-0.085318 -2.190358e-06
-0.085068 -2.285380e-06
-0.084818 -2.379754e-06
-0.084568 -2.473444e-06
-0.084318 -2.566416e-06
-0.084068 -2.658633e-06
-0.083818 -2.750061e-06
-0.083568 -2.840666e-06
-0.083318 -2.930413e-06
-0.083068 -3.019269e-06
-0.082818 -3.107201e-06
-0.082568 -3.194176e-06
-0.082318 -3.280162e-06
-0.082068 -3.365126e-06
-0.081818 -3.449037e-06
-0.081568 -3.531863e-06
-0.081318 -3.613576e-06
-0.081068 -3.694143e-06
-0.080818 -3.773535e-06
-0.080568 -3.851724e-06
-0.080318 -3.928681e-06
-0.080068 -4.004377e-06
-0.079818 -4.078785e-06
-0.079568 -4.151878e-06
-0.079318 -4.223630e-06
-0.079068 -4.294013e-06
-0.078818 -4.363004e-06
-0.078568 -4.430577e-06
-0.078318 -4.496708e-06
-0.078068 -4.561374e-06
-0.077818 -4.624550e-06
-0.077568 -4.686216e-06
-0.077318 -4.746348e-06
-0.077068 -4.804927e-06
-0.076818 -4.861931e-06
-0.076568 -4.917341e-06
-0.076318 -4.971136e-06
-0.076068 -5.023300e-06
-0.075818 -5.073812e-06
-0.075568 -5.122658e-06
-0.075318 -5.169819e-06
-0.075068 -5.215280e-06
-0.074818 -5.259025e-06
-0.074568 -5.301040e-06
-0.074318 -5.341312e-06
-0.074068 -5.379826e-06
-0.073818 -5.416571e-06
-0.073568 -5.451534e-06
-0.073318 -5.484705e-06
-0.073068 -5.516073e-06
-0.072818 -5.545628e-06
-0.072568 -5.573362e-06
-0.072318 -5.599267e-06
-0.072068 -5.623333e-06
-0.071818 -5.645556e-06
-0.071568 -5.665929e-06
-0.071318 -5.684446e-06
-0.071068 -5.701103e-06
-0.070818 -5.715896e-06
-0.070568 -5.728822e-06
-0.070318 -5.739878e-06
-0.070068 -5.749063e-06
-0.069818 -5.756375e-06
-0.069568 -5.761815e-06
-0.069318 -5.765382e-06
-0.069068 -5.767078e-06
-0.068818 -5.766905e-06
-0.068568 -5.764865e-06
-0.068318 -5.760962e-06
-0.068068 -5.755199e-06
-0.067818 -5.747582e-06
-0.067568 -5.738116e-06
-0.067318 -5.726806e-06
-0.067068 -5.713661e-06
-0.066818 -5.698687e-06
-0.066568 -5.681892e-06
-0.066318 -5.663286e-06
-0.066068 -5.642878e-06
-0.065818 -5.620679e-06
-0.065568 -5.596699e-06
-0.065318 -5.570950e-06
-0.065068 -5.543444e-06
-0.064818 -5.514195e-06
-0.064568 -5.483215e-06
-0.064318 -5.450520e-06
-0.064068 -5.416123e-06
-0.063818 -5.380042e-06
-0.063568 -5.342291e-06
-0.063318 -5.302887e-06
-0.063068 -5.261848e-06
-0.062818 -5.219192e-06
-0.062568 -5.174938e-06
-0.062318 -5.129104e-06
-0.062068 -5.081710e-06
-0.061818 -5.032777e-06
-0.061568 -4.982326e-06
-0.061318 -4.930378e-06
-0.061068 -4.876954e-06
-0.060818 -4.822078e-06
-0.060568 -4.765773e-06
-0.060318 -4.708062e-06
-0.060068 -4.648968e-06
-0.059818 -4.588518e-06
-0.059568 -4.526735e-06
-0.059318 -4.463645e-06
-0.059068 -4.399275e-06
-0.058818 -4.333650e-06
-0.058568 -4.266798e-06
-0.058318 -4.198745e-06
-0.058068 -4.129520e-06
-0.057818 -4.059151e-06
-0.057568 -3.987666e-06
-0.057318 -3.915095e-06
-0.057068 -3.841465e-06
-0.056818 -3.766808e-06
-0.056568 -3.691153e-06
-0.056318 -3.614531e-06
-0.056068 -3.536972e-06
-0.055818 -3.458507e-06
-0.055568 -3.379167e-06
-0.055318 -3.298985e-06
-0.055068 -3.217991e-06
-0.054818 -3.136219e-06
-0.054568 -3.053699e-06
-0.054318 -2.970467e-06
-0.054068 -2.886552e-06
-0.053818 -2.801990e-06
-0.053568 -2.716814e-06
-0.053318 -2.631055e-06
-0.053068 -2.544750e-06
-0.052818 -2.457930e-06
-0.052568 -2.370630e-06
-0.052318 -2.282884e-06
-0.052068 -2.194727e-06
-0.051818 -2.106192e-06
-0.051568 -2.017314e-06
-0.051318 -1.928127e-06
-0.051068 -1.838667e-06
-0.050818 -1.748967e-06
-0.050568 -1.659062e-06
-0.050318 -1.568987e-06
-0.050068 -1.478776e-06
-0.049818 -1.388464e-06
-0.049568 -1.298087e-06
-0.049318 -1.207677e-06
-0.049068 -1.117271e-06
-0.048818 -1.026903e-06
-0.048568 -9.366061e-07
-0.048318 -8.464159e-07
-0.048068 -7.563666e-07
-0.047818 -6.664922e-07
-0.047568 -5.768269e-07
-0.047318 -4.874046e-07
-0.047068 -3.982592e-07
-0.046818 -3.094242e-07
-0.046568 -2.209332e-07
-0.046318 -1.328195e-07
-0.046068 -4.511616e-08
-0.045818 4.214384e-08
-0.045568 1.289278e-07
-0.045318 2.152034e-07
-0.045068 3.009383e-07
-0.044818 3.861005e-07
-0.044568 4.706584e-07
-0.044318 5.545805e-07
-0.044068 6.378358e-07
-0.043818 7.203933e-07
-0.043568 8.022226e-07
-0.043318 8.832935e-07
-0.043068 9.635761e-07
-0.042818 1.043041e-06
-0.042568 1.121659e-06
-0.042318 1.199401e-06
-0.042068 1.276239e-06
-0.041818 1.352145e-06
-0.041568 1.427091e-06
-0.041318 1.501050e-06
-0.041068 1.573995e-06
-0.040818 1.645900e-06
-0.040568 1.716739e-06
-0.040318 1.786486e-06
-0.040068 1.855117e-06
-0.039818 1.922606e-06
-0.039568 1.988930e-06
-0.039318 2.054065e-06
-0.039068 2.117988e-06
-0.038818 2.180677e-06
-0.038568 2.242108e-06
-0.038318 2.302262e-06
-0.038068 2.361115e-06
-0.037818 2.418649e-06
-0.037568 2.474842e-06
-0.037318 2.529676e-06
-0.037068 2.583131e-06
-0.036818 2.635190e-06
-0.036568 2.685833e-06
-0.036318 2.735045e-06
-0.036068 2.782808e-06
-0.035818 2.829106e-06
-0.035568 2.873924e-06
-0.035318 2.917246e-06
-0.035068 2.959059e-06
-0.034818 2.999349e-06
-0.034568 3.038102e-06
-0.034318 3.075306e-06
-0.034068 3.110949e-06
-0.033818 3.145020e-06
-0.033568 3.177508e-06
-0.033318 3.208403e-06
-0.033068 3.237695e-06
-0.032818 3.265376e-06
-0.032568 3.291438e-06
-0.032318 3.315873e-06
-0.032068 3.338673e-06
-0.031818 3.359834e-06
-0.031568 3.379348e-06
-0.031318 3.397212e-06
-0.031068 3.413420e-06
-0.030818 3.427969e-06
-0.030568 3.440855e-06
-0.030318 3.452077e-06
-0.030068 3.461633e-06
-0.029818 3.469520e-06
-0.029568 3.475740e-06
-0.029318 3.480291e-06
-0.029068 3.483175e-06
-0.028818 3.484392e-06
-0.028568 3.483946e-06
-0.028318 3.481837e-06
-0.028068 3.478071e-06
-0.027818 3.472650e-06
-0.027568 3.465579e-06
-0.027318 3.456863e-06
-0.027068 3.446509e-06
-0.026818 3.434521e-06
-0.026568 3.420908e-06
-0.026318 3.405677e-06
-0.026068 3.388835e-06
-0.025818 3.370393e-06
-0.025568 3.350359e-06
-0.025318 3.328743e-06
-0.025068 3.305555e-06
-0.024818 3.280808e-06
-0.024568 3.254512e-06
-0.024318 3.226680e-06
-0.024068 3.197325e-06
-0.023818 3.166460e-06
-0.023568 3.134100e-06
-0.023318 3.100258e-06
-0.023068 3.064950e-06
-0.022818 3.028192e-06
-0.022568 2.989999e-06
-0.022318 2.950389e-06
-0.022068 2.909378e-06
-0.021818 2.866984e-06
-0.021568 2.823225e-06
-0.021318 2.778121e-06
-0.021068 2.731690e-06
-0.020818 2.683951e-06
-0.020568 2.634926e-06
-0.020318 2.584634e-06
-0.020068 2.533097e-06
-0.019818 2.480336e-06
-0.019568 2.426373e-06
-0.019318 2.371230e-06
-0.019068 2.314931e-06
-0.018818 2.257498e-06
-0.018568 2.198954e-06
-0.018318 2.139324e-06
-0.018068 2.078633e-06
-0.017818 2.016904e-06
-0.017568 1.954163e-06
-0.017318 1.890435e-06
-0.017068 1.825746e-06
-0.016818 1.760123e-06
-0.016568 1.693590e-06
-0.016318 1.626176e-06
-0.016068 1.557907e-06
-0.015818 1.488810e-06
-0.015568 1.418914e-06
-0.015318 1.348245e-06
-0.015068 1.276831e-06
-0.014818 1.204702e-06
-0.014568 1.131886e-06
-0.014318 1.058411e-06
-0.014068 9.843067e-07
-0.013818 9.096018e-07
-0.013568 8.343258e-07
-0.013318 7.585083e-07
-0.013068 6.821789e-07
-0.012818 6.053675e-07
-0.012568 5.281041e-07
-0.012318 4.504188e-07
-0.012068 3.723418e-07
-0.011818 2.939034e-07
-0.011568 2.151340e-07
-0.011318 1.360643e-07
-0.011068 5.672467e-08
-0.010818 -2.285417e-08
-0.010568 -1.026415e-07
-0.010318 -1.826068e-07
-0.010068 -2.627190e-07
-0.009818 -3.429477e-07
-0.009568 -4.232619e-07
-0.009318 -5.036310e-07
-0.009068 -5.840242e-07
-0.008818 -6.644109e-07
-0.008568 -7.447604e-07
-0.008318 -8.250422e-07
-0.008068 -9.052257e-07
-0.007818 -9.852806e-07
-0.007568 -1.065176e-06
-0.007318 -1.144883e-06
-0.007068 -1.224371e-06
-0.006818 -1.303609e-06
-0.006568 -1.382568e-06
-0.006318 -1.461218e-06
-0.006068 -1.539529e-06
-0.005818 -1.617473e-06
-0.005568 -1.695020e-06
-0.005318 -1.772142e-06
-0.005068 -1.848808e-06
-0.004818 -1.924992e-06
-0.004568 -2.000663e-06
-0.004318 -2.075795e-06
-0.004068 -2.150360e-06
-0.003818 -2.224329e-06
-0.003568 -2.297676e-06
-0.003318 -2.370373e-06
-0.003068 -2.442394e-06
-0.002818 -2.513712e-06
-0.002568 -2.584301e-06
-0.002318 -2.654136e-06
-0.002068 -2.723189e-06
-0.001818 -2.791438e-06
-0.001568 -2.858855e-06
-0.001318 -2.925418e-06
-0.001068 -2.991102e-06
-0.000818 -3.055882e-06
-0.000568 -3.119736e-06
-0.000318 -3.182641e-06
-0.000068 -3.244574e-06
0.000182 -3.305513e-06
0.000432 -3.365435e-06
0.000682 -3.424320e-06
0.000932 -3.482147e-06
0.001182 -3.538895e-06
0.001432 -3.594543e-06
0.001682 -3.649073e-06
0.001932 -3.702465e-06
0.002182 -3.754700e-06
0.002432 -3.805760e-06
0.002682 -3.855627e-06
0.002932 -3.904284e-06
0.003182 -3.951714e-06
0.003432 -3.997900e-06
0.003682 -4.042827e-06
0.003932 -4.086480e-06
0.004182 -4.128843e-06
0.004432 -4.169902e-06
0.004682 -4.209644e-06
0.004932 -4.248054e-06
0.005182 -4.285121e-06
0.005432 -4.320831e-06
0.005682 -4.355174e-06
0.005932 -4.388137e-06
0.006182 -4.419711e-06
0.006432 -4.449885e-06
0.006682 -4.478650e-06
0.006932 -4.505996e-06
0.007182 -4.531915e-06
0.007432 -4.556399e-06
0.007682 -4.579441e-06
0.007932 -4.601034e-06
0.008182 -4.621171e-06
0.008432 -4.639848e-06
0.008682 -4.657058e-06
0.008932 -4.672797e-06
0.009182 -4.687062e-06
0.009432 -4.699848e-06
0.009682 -4.711153e-06
0.009932 -4.720975e-06
0.010182 -4.729311e-06
0.010432 -4.736161e-06
0.010682 -4.741524e-06
0.010932 -4.745400e-06
0.011182 -4.747789e-06
0.011432 -4.748693e-06
0.011682 -4.748113e-06
0.011932 -4.746051e-06
0.012182 -4.742509e-06
0.012432 -4.737492e-06
0.012682 -4.731003e-06
0.012932 -4.723047e-06
0.013182 -4.713628e-06
0.013432 -4.702752e-06
0.013682 -4.690424e-06
0.013932 -4.676652e-06
0.014182 -4.661443e-06
0.014432 -4.644804e-06
0.014682 -4.626743e-06
0.014932 -4.607270e-06
0.015182 -4.586393e-06
0.015432 -4.564121e-06
0.015682 -4.540466e-06
0.015932 -4.515438e-06
0.016182 -4.489048e-06
0.016432 -4.461308e-06
0.016682 -4.432231e-06
0.016932 -4.401828e-06
0.017182 -4.370114e-06
0.017432 -4.337102e-06
0.017682 -4.302805e-06
0.017932 -4.267240e-06
0.018182 -4.230420e-06
0.018432 -4.192361e-06
0.018682 -4.153080e-06
0.018932 -4.112592e-06
0.019182 -4.070915e-06
0.019432 -4.028066e-06
0.019682 -3.984062e-06
0.019932 -3.938922e-06
0.020182 -3.892664e-06
0.020432 -3.845308e-06
0.020682 -3.796871e-06
0.020932 -3.747375e-06
0.021182 -3.696838e-06
0.021432 -3.645282e-06
0.021682 -3.592728e-06
0.021932 -3.539196e-06
0.022182 -3.484707e-06
0.022432 -3.429284e-06
0.022682 -3.372949e-06
0.022932 -3.315724e-06
0.023182 -3.257631e-06
0.023432 -3.198695e-06
0.023682 -3.138938e-06
0.023932 -3.078383e-06
0.024182 -3.017055e-06
0.024432 -2.954977e-06
0.024682 -2.892174e-06
0.024932 -2.828671e-06
0.025182 -2.764493e-06
0.025432 -2.699663e-06
0.025682 -2.634209e-06
0.025932 -2.568154e-06
0.026182 -2.501525e-06
0.026432 -2.434348e-06
0.026682 -2.366648e-06
0.026932 -2.298452e-06
0.027182 -2.229785e-06
0.027432 -2.160676e-06
0.027682 -2.091148e-06
0.027932 -2.021231e-06
0.028182 -1.950950e-06
0.028432 -1.880332e-06
0.028682 -1.809405e-06
0.028932 -1.738194e-06
0.029182 -1.666728e-06
0.029432 -1.595034e-06
0.029682 -1.523139e-06
0.029932 -1.451069e-06
0.030182 -1.378853e-06
0.030432 -1.306518e-06
0.030682 -1.234091e-06
0.030932 -1.161599e-06
0.031182 -1.089069e-06
0.031432 -1.016529e-06
0.031682 -9.440068e-07
0.031932 -8.715284e-07
0.032182 -7.991215e-07
0.032432 -7.268130e-07
0.032682 -6.546300e-07
0.032932 -5.825993e-07
0.033182 -5.107477e-07
0.033432 -4.391020e-07
0.033682 -3.676888e-07
0.033932 -2.965345e-07
0.034182 -2.256654e-07
0.034432 -1.551077e-07
0.034682 -8.488743e-08
0.034932 -1.503049e-08
0.035182 5.443747e-08
0.035432 1.234909e-07
0.035682 1.921046e-07
0.035932 2.602533e-07
0.036182 3.279122e-07
0.036432 3.950566e-07
0.036682 4.616620e-07
0.036932 5.277043e-07
0.037182 5.931594e-07
0.037432 6.580037e-07
0.037682 7.222137e-07
0.037932 7.857662e-07
0.038182 8.486383e-07
0.038432 9.108074e-07
0.038682 9.722512e-07
0.038932 1.032948e-06
0.039182 1.092875e-06
0.039432 1.152012e-06
0.039682 1.210338e-06
0.039932 1.267831e-06
0.040182 1.324472e-06
0.040432 1.380241e-06
0.040682 1.435117e-06
0.040932 1.489082e-06
0.041182 1.542116e-06
0.041432 1.594202e-06
0.041682 1.645320e-06
0.041932 1.695453e-06
0.042182 1.744584e-06
0.042432 1.792695e-06
0.042682 1.839771e-06
0.042932 1.885794e-06
0.043182 1.930750e-06
0.043432 1.974623e-06
0.043682 2.017397e-06
0.043932 2.059059e-06
0.044182 2.099595e-06
0.044432 2.138990e-06
0.044682 2.177233e-06
0.044932 2.214309e-06
0.045182 2.250207e-06
0.045432 2.284915e-06
0.045682 2.318422e-06
0.045932 2.350717e-06
0.046182 2.381790e-06
0.046432 2.411630e-06
0.046682 2.440228e-06
0.046932 2.467576e-06
0.047182 2.493665e-06
0.047432 2.518487e-06
0.047682 2.542034e-06
0.047932 2.564299e-06
0.048182 2.585277e-06
0.048432 2.604960e-06
0.048682 2.623344e-06
0.048932 2.640424e-06
0.049182 2.656194e-06
0.049432 2.670651e-06
0.049682 2.683791e-06
0.049932 2.695612e-06
0.050182 2.706111e-06
0.050432 2.715285e-06
0.050682 2.723133e-06
0.050932 2.729655e-06
0.051182 2.734849e-06
0.051432 2.738716e-06
0.051682 2.741257e-06
0.051932 2.742471e-06
0.052182 2.742360e-06
0.052432 2.740928e-06
0.052682 2.738175e-06
0.052932 2.734105e-06
0.053182 2.728721e-06
0.053432 2.722028e-06
0.053682 2.714029e-06
0.053932 2.704729e-06
0.054182 2.694135e-06
0.054432 2.682251e-06
0.054682 2.669084e-06
0.054932 2.654641e-06
0.055182 2.638929e-06
0.055432 2.621956e-06
0.055682 2.603730e-06
0.055932 2.584260e-06
0.056182 2.563554e-06
0.056432 2.541623e-06
0.056682 2.518476e-06
0.056932 2.494123e-06
0.057182 2.468577e-06
0.057432 2.441847e-06
0.057682 2.413945e-06
0.057932 2.384885e-06
0.058182 2.354678e-06
0.058432 2.323337e-06
0.058682 2.290876e-06
0.058932 2.257308e-06
0.059182 2.222648e-06
0.059432 2.186911e-06
0.059682 2.150110e-06
0.059932 2.112262e-06
0.060182 2.073383e-06
0.060432 2.033488e-06
0.060682 1.992593e-06
0.060932 1.950716e-06
0.061182 1.907874e-06
0.061432 1.864084e-06
0.061682 1.819364e-06
0.061932 1.773731e-06
0.062182 1.727206e-06
0.062432 1.679805e-06
0.062682 1.631549e-06
0.062932 1.582456e-06
0.063182 1.532546e-06
0.063432 1.481839e-06
0.063682 1.430356e-06
0.063932 1.378116e-06
0.064182 1.325141e-06
0.064432 1.271451e-06
0.064682 1.217067e-06
0.064932 1.162011e-06
0.065182 1.106304e-06
0.065432 1.049969e-06
0.065682 9.930272e-07
0.065932 9.355008e-07
0.066182 8.774123e-07
0.066432 8.187843e-07
0.066682 7.596396e-07
0.066932 7.000011e-07
0.067182 6.398920e-07
0.067432 5.793353e-07
0.067682 5.183545e-07
0.067932 4.569731e-07
0.068182 3.952146e-07
0.068432 3.331027e-07
0.068682 2.706614e-07
0.068932 2.079144e-07
0.069182 1.448857e-07
0.069432 8.159938e-08
0.069682 1.807955e-08
0.069932 -4.564962e-08
0.070182 -1.095639e-07
0.070432 -1.736392e-07
0.070682 -2.378510e-07
0.070932 -3.021753e-07
0.071182 -3.665875e-07
0.071432 -4.310636e-07
0.071682 -4.955791e-07
0.071932 -5.601099e-07
0.072182 -6.246317e-07
0.072432 -6.891203e-07
0.072682 -7.535515e-07
0.072932 -8.179013e-07
0.073182 -8.821457e-07
0.073432 -9.462606e-07
0.073682 -1.010222e-06
0.073932 -1.074007e-06
0.074182 -1.137591e-06
0.074432 -1.200950e-06
0.074682 -1.264062e-06
0.074932 -1.326902e-06
0.075182 -1.389448e-06
0.075432 -1.451677e-06
0.075682 -1.513566e-06
0.075932 -1.575091e-06
0.076182 -1.636231e-06
0.076432 -1.696963e-06
0.076682 -1.757265e-06
0.076932 -1.817115e-06
0.077182 -1.876490e-06
0.077432 -1.935370e-06
0.077682 -1.993732e-06
0.077932 -2.051557e-06
0.078182 -2.108822e-06
0.078432 -2.165507e-06
0.078682 -2.221592e-06
0.078932 -2.277056e-06
0.079182 -2.331880e-06
0.079432 -2.386043e-06
0.079682 -2.439527e-06
0.079932 -2.492312e-06
0.080182 -2.544379e-06
0.080432 -2.595710e-06
0.080682 -2.646287e-06
0.080932 -2.696091e-06
0.081182 -2.745105e-06
0.081432 -2.793312e-06
0.081682 -2.840695e-06
0.081932 -2.887237e-06
0.082182 -2.932921e-06
0.082432 -2.977733e-06
0.082682 -3.021655e-06
0.082932 -3.064673e-06
0.083182 -3.106773e-06
0.083432 -3.147938e-06
0.083682 -3.188156e-06
0.083932 -3.227413e-06
0.084182 -3.265694e-06
0.084432 -3.302988e-06
0.084682 -3.339280e-06
0.084932 -3.374560e-06
0.085182 -3.408815e-06
0.085432 -3.442034e-06
0.085682 -3.474205e-06
0.085932 -3.505318e-06
0.086182 -3.535363e-06
0.086432 -3.564330e-06
0.086682 -3.592209e-06
0.086932 -3.618992e-06
0.087182 -3.644669e-06
0.087432 -3.669234e-06
0.087682 -3.692677e-06
0.087932 -3.714991e-06
0.088182 -3.736171e-06
0.088432 -3.756209e-06
0.088682 -3.775099e-06
0.088932 -3.792835e-06
0.089182 -3.809414e-06
0.089432 -3.824829e-06
0.089682 -3.839077e-06
0.089932 -3.852154e-06
0.090182 -3.864056e-06
0.090432 -3.874780e-06
0.090682 -3.884325e-06
0.090932 -3.892688e-06
0.091182 -3.899867e-06
0.091432 -3.905861e-06
0.091682 -3.910669e-06
0.091932 -3.914292e-06
0.092182 -3.916729e-06
0.092432 -3.917982e-06
0.092682 -3.918050e-06
0.092932 -3.916936e-06
0.093182 -3.914641e-06
0.093432 -3.911168e-06
0.093682 -3.906519e-06
0.093932 -3.900699e-06
0.094182 -3.893710e-06
0.094432 -3.885556e-06
0.094682 -3.876243e-06
0.094932 -3.865774e-06
0.095182 -3.854156e-06
0.095432 -3.841395e-06
0.095682 -3.827495e-06
0.095932 -3.812465e-06
0.096182 -3.796311e-06
0.096432 -3.779040e-06
0.096682 -3.760661e-06
0.096932 -3.741182e-06
0.097182 -3.720610e-06
0.097432 -3.698956e-06
0.097682 -3.676229e-06
0.097932 -3.652438e-06
0.098182 -3.627595e-06
0.098432 -3.601708e-06
0.098682 -3.574790e-06
0.098932 -3.546851e-06
0.099182 -3.517904e-06
0.099432 -3.487960e-06
0.099682 -3.457032e-06
0.099932 -3.425132e-06
0.100182 -3.392274e-06
0.100432 -3.358471e-06
0.100682 -3.323737e-06
0.100932 -3.288085e-06
0.101182 -3.251531e-06
0.101432 -3.214089e-06
0.101682 -3.175774e-06
0.101932 -3.136601e-06
0.102182 -3.096587e-06
0.102432 -3.055746e-06
0.102682 -3.014095e-06
0.102932 -2.971651e-06
0.103182 -2.928431e-06
0.103432 -2.884451e-06
0.103682 -2.839729e-06
0.103932 -2.794282e-06
0.104182 -2.748128e-06
0.104432 -2.701285e-06
0.104682 -2.653771e-06
0.104932 -2.605606e-06
0.105182 -2.556806e-06
0.105432 -2.507393e-06
0.105682 -2.457383e-06
0.105932 -2.406798e-06
0.106182 -2.355656e-06
0.106432 -2.303977e-06
0.106682 -2.251781e-06
0.106932 -2.199087e-06
0.107182 -2.145917e-06
0.107432 -2.092290e-06
0.107682 -2.038227e-06
0.107932 -1.983748e-06
0.108182 -1.928874e-06
0.108432 -1.873626e-06
0.108682 -1.818025e-06
0.108932 -1.762092e-06
0.109182 -1.705848e-06
0.109432 -1.649314e-06
0.109682 -1.592511e-06
0.109932 -1.535462e-06
0.110182 -1.478187e-06
0.110432 -1.420708e-06
0.110682 -1.363046e-06
0.110932 -1.305224e-06
0.111182 -1.247261e-06
0.111432 -1.189182e-06
0.111682 -1.131006e-06
0.111932 -1.072755e-06
0.112182 -1.014452e-06
0.112432 -9.561171e-07
0.112682 -8.977729e-07
0.112932 -8.394407e-07
0.113182 -7.811421e-07
0.113432 -7.228985e-07
0.113682 -6.647315e-07
0.113932 -6.066624e-07
0.114182 -5.487125e-07
0.114432 -4.909032e-07
0.114682 -4.332556e-07
0.114932 -3.757909e-07
0.115182 -3.185300e-07
0.115432 -2.614937e-07
0.115682 -2.047030e-07
0.115932 -1.481784e-07
0.116182 -9.194058e-08
0.116432 -3.600982e-08
0.116682 1.959359e-08
0.116932 7.484954e-08
0.117182 1.297381e-07
0.117432 1.842394e-07
0.117682 2.383339e-07
0.117932 2.920021e-07
0.118182 3.452248e-07
0.118432 3.979829e-07
0.118682 4.502575e-07
0.118932 5.020300e-07
0.119182 5.532820e-07
0.119432 6.039951e-07
0.119682 6.541515e-07
0.119932 7.037332e-07
0.120182 7.527229e-07
0.120432 8.011031e-07
0.120682 8.488569e-07
0.120932 8.959674e-07
0.121182 9.424181e-07
0.121432 9.881929e-07
0.121682 1.033276e-06
0.121932 1.077651e-06
0.122182 1.121302e-06
0.122432 1.164216e-06
0.122682 1.206376e-06
0.122932 1.247769e-06
0.123182 1.288380e-06
0.123432 1.328195e-06
0.123682 1.367200e-06
0.123932 1.405383e-06
0.124182 1.442730e-06
0.124432 1.479228e-06
0.124682 1.514866e-06
0.124932 1.549632e-06
0.125182 1.583513e-06
0.125432 1.616498e-06
0.125682 1.648577e-06
0.125932 1.679738e-06
0.126182 1.709973e-06
0.126432 1.739270e-06
0.126682 1.767620e-06
0.126932 1.795014e-06
0.127182 1.821444e-06
0.127432 1.846900e-06
0.127682 1.871375e-06
0.127932 1.894861e-06
0.128182 1.917351e-06
0.128432 1.938838e-06
0.128682 1.959315e-06
0.128932 1.978776e-06
0.129182 1.997215e-06
0.129432 2.014628e-06
0.129682 2.031008e-06
0.129932 2.046352e-06
0.130182 2.060655e-06
0.130432 2.073914e-06
0.130682 2.086124e-06
0.130932 2.097283e-06
0.131182 2.107388e-06
0.131432 2.116437e-06
0.131682 2.124428e-06
0.131932 2.131360e-06
0.132182 2.137231e-06
0.132432 2.142041e-06
0.132682 2.145790e-06
0.132932 2.148477e-06
0.133182 2.150103e-06
0.133432 2.150669e-06
0.133682 2.150176e-06
0.133932 2.148627e-06
0.134182 2.146022e-06
0.134432 2.142365e-06
0.134682 2.137658e-06
0.134932 2.131904e-06
0.135182 2.125108e-06
0.135432 2.117273e-06
0.135682 2.108402e-06
0.135932 2.098503e-06
0.136182 2.087578e-06
0.136432 2.075634e-06
0.136682 2.062676e-06
0.136932 2.048712e-06
0.137182 2.033747e-06
0.137432 2.017788e-06
0.137682 2.000842e-06
0.137932 1.982918e-06
0.138182 1.964023e-06
0.138432 1.944166e-06
0.138682 1.923355e-06
0.138932 1.901599e-06
0.139182 1.878908e-06
0.139432 1.855291e-06
0.139682 1.830759e-06
0.139932 1.805322e-06
0.140182 1.778990e-06
0.140432 1.751775e-06
0.140682 1.723687e-06
0.140932 1.694739e-06
0.141182 1.664942e-06
0.141432 1.634309e-06
0.141682 1.602851e-06
0.141932 1.570583e-06
0.142182 1.537516e-06
0.142432 1.503665e-06
0.142682 1.469043e-06
0.142932 1.433663e-06
0.143182 1.397541e-06
0.143432 1.360690e-06
0.143682 1.323124e-06
0.143932 1.284860e-06
0.144182 1.245912e-06
0.144432 1.206295e-06
0.144682 1.166025e-06
0.144932 1.125118e-06
0.145182 1.083590e-06
0.145432 1.041458e-06
0.145682 9.987363e-07
0.145932 9.554432e-07
0.146182 9.115952e-07
0.146432 8.672092e-07
0.146682 8.223024e-07
0.146932 7.768922e-07
0.147182 7.309961e-07
0.147432 6.846318e-07
0.147682 6.378170e-07
0.147932 5.905698e-07
0.148182 5.429082e-07
0.148432 4.948505e-07
0.148682 4.464150e-07
0.148932 3.976202e-07
0.149182 3.484847e-07
0.149432 2.990271e-07
0.149682 2.492661e-07
0.149932 1.992207e-07
0.150182 1.489098e-07
0.150432 9.835232e-08
0.150682 4.756739e-08
0.150932 -3.425871e-09
0.151182 -5.460829e-08
0.151432 -1.059606e-07
0.151682 -1.574637e-07
0.151932 -2.090981e-07
0.152182 -2.608446e-07
0.152432 -3.126838e-07
0.152682 -3.645965e-07
0.152932 -4.165632e-07
0.153182 -4.685647e-07
0.153432 -5.205817e-07
0.153682 -5.725948e-07
0.153932 -6.245847e-07
0.154182 -6.765323e-07
0.154432 -7.284183e-07
0.154682 -7.802237e-07
0.154932 -8.319292e-07
0.155182 -8.835160e-07
0.155432 -9.349649e-07
0.155682 -9.862573e-07
0.155932 -1.037374e-06
0.156182 -1.088297e-06
0.156432 -1.139007e-06
0.156682 -1.189486e-06
0.156932 -1.239715e-06
0.157182 -1.289676e-06
0.157432 -1.339351e-06
0.157682 -1.388721e-06
0.157932 -1.437770e-06
0.158182 -1.486479e-06
0.158432 -1.534831e-06
0.158682 -1.582808e-06
0.158932 -1.630393e-06
0.159182 -1.677568e-06
0.159432 -1.724318e-06
0.159682 -1.770624e-06
0.159932 -1.816471e-06
0.160182 -1.861843e-06
0.160432 -1.906722e-06
0.160682 -1.951093e-06
0.160932 -1.994940e-06
0.161182 -2.038248e-06
0.161432 -2.081001e-06
0.161682 -2.123184e-06
0.161932 -2.164783e-06
0.162182 -2.205782e-06
0.162432 -2.246168e-06
0.162682 -2.285925e-06
0.162932 -2.325041e-06
0.163182 -2.363501e-06
0.163432 -2.401293e-06
0.163682 -2.438402e-06
0.163932 -2.474816e-06
0.164182 -2.510523e-06
0.164432 -2.545510e-06
0.164682 -2.579765e-06
0.164932 -2.613277e-06
0.165182 -2.646033e-06
0.165432 -2.678024e-06
0.165682 -2.709237e-06
0.165932 -2.739662e-06
0.166182 -2.769290e-06
0.166432 -2.798109e-06
0.166682 -2.826111e-06
0.166932 -2.853287e-06
0.167182 -2.879626e-06
0.167432 -2.905121e-06
0.167682 -2.929763e-06
0.167932 -2.953544e-06
0.168182 -2.976456e-06
0.168432 -2.998492e-06
0.168682 -3.019645e-06
0.168932 -3.039908e-06
0.169182 -3.059275e-06
0.169432 -3.077739e-06
0.169682 -3.095295e-06
0.169932 -3.111938e-06
0.170182 -3.127663e-06
0.170432 -3.142464e-06
0.170682 -3.156339e-06
0.170932 -3.169281e-06
0.171182 -3.181289e-06
0.171432 -3.192358e-06
0.171682 -3.202486e-06
0.171932 -3.211670e-06
0.172182 -3.219908e-06
0.172432 -3.227198e-06
0.172682 -3.233539e-06
0.172932 -3.238929e-06
0.173182 -3.243367e-06
0.173432 -3.246853e-06
0.173682 -3.249388e-06
0.173932 -3.250970e-06
0.174182 -3.251601e-06
0.174432 -3.251281e-06
0.174682 -3.250012e-06
0.174932 -3.247796e-06
0.175182 -3.244634e-06
0.175432 -3.240529e-06
0.175682 -3.235483e-06
0.175932 -3.229500e-06
0.176182 -3.222582e-06
0.176432 -3.214734e-06
0.176682 -3.205959e-06
0.176932 -3.196262e-06
0.177182 -3.185647e-06
0.177432 -3.174119e-06
0.177682 -3.161684e-06
0.177932 -3.148348e-06
0.178182 -3.134116e-06
0.178432 -3.118995e-06
0.178682 -3.102991e-06
0.178932 -3.086112e-06
0.179182 -3.068364e-06
0.179432 -3.049755e-06
0.179682 -3.030293e-06
0.179932 -3.009986e-06
0.180182 -2.988843e-06
0.180432 -2.966873e-06
0.180682 -2.944084e-06
0.180932 -2.920485e-06
0.181182 -2.896088e-06
0.181432 -2.870900e-06
0.181682 -2.844933e-06
0.181932 -2.818198e-06
0.182182 -2.790704e-06
0.182432 -2.762463e-06
0.182682 -2.733486e-06
0.182932 -2.703784e-06
0.183182 -2.673370e-06
0.183432 -2.642256e-06
0.183682 -2.610453e-06
0.183932 -2.577974e-06
0.184182 -2.544832e-06
0.184432 -2.511040e-06
0.184682 -2.476611e-06
0.184932 -2.441558e-06
0.185182 -2.405895e-06
0.185432 -2.369636e-06
0.185682 -2.332795e-06
0.185932 -2.295386e-06
0.186182 -2.257424e-06
0.186432 -2.218922e-06
0.186682 -2.179897e-06
0.186932 -2.140362e-06