0.000000 -8.781923e-07
0.000250 -8.796169e-07
0.000500 -8.809778e-07
0.000750 -8.822747e-07
0.001000 -8.835074e-07
0.001250 -8.846757e-07
0.001500 -8.857792e-07
0.001750 -8.868179e-07
0.002000 -8.877915e-07
0.002250 -8.887000e-07
0.002500 -8.895432e-07
0.002750 -8.903210e-07
0.003000 -8.910335e-07
0.003250 -8.916806e-07
0.003500 -8.922623e-07
0.003750 -8.927787e-07
0.004000 -8.932298e-07
0.004250 -8.936158e-07
0.004500 -8.939369e-07
0.004750 -8.941931e-07
0.005000 -8.943848e-07
0.005250 -8.945122e-07
0.005500 -8.945756e-07
0.005750 -8.945753e-07
0.006000 -8.945116e-07
0.006250 -8.943850e-07
0.006500 -8.941959e-07
0.006750 -8.939448e-07
0.007000 -8.936323e-07
0.007250 -8.932588e-07
0.007500 -8.928249e-07
0.007750 -8.923314e-07
0.008000 -8.917790e-07
0.008250 -8.911682e-07
0.008500 -8.905001e-07
0.008750 -8.897753e-07
0.009000 -8.889947e-07
0.009250 -8.881593e-07
0.009500 -8.872701e-07
0.009750 -8.863280e-07
0.010000 -8.853343e-07
0.010250 -8.842899e-07
0.010500 -8.831962e-07
0.010750 -8.820543e-07
0.011000 -8.808656e-07
0.011250 -8.796315e-07
0.011500 -8.783533e-07
0.011750 -8.770327e-07
0.012000 -8.756711e-07
0.012250 -8.742701e-07
0.012500 -8.728317e-07
0.012750 -8.713573e-07
0.013000 -8.698491e-07
0.013250 -8.683088e-07
0.013500 -8.667385e-07
0.013750 -8.651403e-07
0.014000 -8.635164e-07
0.014250 -8.618689e-07
0.014500 -8.602004e-07
0.014750 -8.585132e-07
0.015000 -8.568099e-07
0.015250 -8.550932e-07
0.015500 -8.533657e-07
0.015750 -8.516304e-07
0.016000 -8.498902e-07
0.016250 -8.481482e-07
0.016500 -8.464076e-07
0.016750 -8.446717e-07
0.017000 -8.429440e-07
0.017250 -8.412280e-07
0.017500 -8.395275e-07
0.017750 -8.378463e-07
0.018000 -8.361884e-07
0.018250 -8.345580e-07
0.018500 -8.329594e-07
0.018750 -8.313971e-07
0.019000 -8.298756e-07
0.019250 -8.283999e-07
0.019500 -8.269748e-07
0.019750 -8.256057e-07
0.020000 -8.242978e-07
0.020250 -8.230568e-07
0.020500 -8.218883e-07
0.020750 -8.207985e-07
0.021000 -8.197936e-07
0.021250 -8.188799e-07
0.021500 -8.180643e-07
0.021750 -8.173536e-07
0.022000 -8.167550e-07
0.022250 -8.162762e-07
0.022500 -8.159247e-07
0.022750 -8.157087e-07
0.023000 -8.156365e-07
0.023250 -8.157167e-07
0.023500 -8.159584e-07
0.023750 -8.163709e-07
0.024000 -8.169638e-07
0.024250 -8.177471e-07
0.024500 -8.187313e-07
0.024750 -8.199272e-07
0.025000 -8.213460e-07
0.025250 -8.229992e-07
0.025500 -8.248989e-07
0.025750 -8.270576e-07
0.026000 -8.294882e-07
0.026250 -8.322043e-07
0.026500 -8.352197e-07
0.026750 -8.385489e-07
0.027000 -8.422069e-07
0.027250 -8.462092e-07
0.027500 -8.505720e-07
0.027750 -8.553120e-07
0.028000 -8.604466e-07
0.028250 -8.659938e-07
0.028500 -8.719721e-07
0.028750 -8.784010e-07
0.029000 -8.853005e-07
0.029250 -8.926914e-07
0.029500 -9.005952e-07
0.029750 -9.090344e-07
0.030000 -9.180321e-07
0.030250 -9.276123e-07
0.030500 -9.378000e-07
0.030750 -9.486209e-07
0.031000 -9.601018e-07
0.031250 -9.722704e-07
0.031500 -9.851556e-07
0.031750 -9.987870e-07
0.032000 -1.013196e-06
0.032250 -1.028413e-06
0.032500 -1.044473e-06
0.032750 -1.061410e-06
0.033000 -1.079258e-06
0.033250 -1.098056e-06
0.033500 -1.117841e-06
0.033750 -1.138652e-06
0.034000 -1.160531e-06
0.034250 -1.183520e-06
0.034500 -1.207663e-06
0.034750 -1.233006e-06
0.035000 -1.259594e-06
0.035250 -1.287478e-06
0.035500 -1.316707e-06
0.035750 -1.347334e-06
0.036000 -1.379413e-06
0.036250 -1.412999e-06
0.036500 -1.448151e-06
0.036750 -1.484928e-06
0.037000 -1.523392e-06
0.037250 -1.563608e-06
0.037500 -1.605640e-06
0.037750 -1.649559e-06
0.038000 -1.695435e-06
0.038250 -1.743341e-06
0.038500 -1.793352e-06
0.038750 -1.845548e-06
0.039000 -1.900009e-06
0.039250 -1.956819e-06
0.039500 -2.016064e-06
0.039750 -2.077834e-06
0.040000 -2.142220e-06
0.040250 -2.209319e-06
0.040500 -2.279229e-06
0.040750 -2.352052e-06
0.041000 -2.427893e-06
0.041250 -2.506860e-06
0.041500 -2.589066e-06
0.041750 -2.674627e-06
0.042000 -2.763661e-06
0.042250 -2.856293e-06
0.042500 -2.952649e-06
0.042750 -3.052861e-06
0.043000 -3.157066e-06
0.043250 -3.265401e-06
0.043500 -3.378013e-06
0.043750 -3.495049e-06
0.044000 -3.616664e-06
0.044250 -3.743016e-06
0.044500 -3.874267e-06
0.044750 -4.010587e-06
0.045000 -4.152148e-06
0.045250 -4.299130e-06
0.045500 -4.451717e-06
0.045750 -4.610099e-06
0.046000 -4.774472e-06
0.046250 -4.945036e-06
0.046500 -5.122001e-06
0.046750 -5.305579e-06
0.047000 -5.495991e-06
0.047250 -5.693465e-06
0.047500 -5.898232e-06
0.047750 -6.110534e-06
0.048000 -6.330618e-06
0.048250 -6.558739e-06
0.048500 -6.795159e-06
0.048750 -7.040146e-06
0.049000 -7.293979e-06
0.049250 -7.556943e-06
0.049500 -7.829330e-06
0.049750 -8.111443e-06
0.050000 -8.403592e-06
0.050250 -8.706094e-06
0.050500 -9.019279e-06
0.050750 -9.343481e-06
0.051000 -9.679049e-06
0.051250 -1.002634e-05
0.051500 -1.038571e-05
0.051750 -1.075754e-05
0.052000 -1.114222e-05
0.052250 -1.154014e-05
0.052500 -1.195170e-05
0.052750 -1.237733e-05
0.053000 -1.281745e-05
0.053250 -1.327250e-05
0.053500 -1.374294e-05
0.053750 -1.422921e-05
0.054000 -1.473180e-05
0.054250 -1.525120e-05
0.054500 -1.578790e-05
0.054750 -1.634241e-05
0.055000 -1.691526e-05
0.055250 -1.750698e-05
0.055500 -1.811812e-05
0.055750 -1.874926e-05
0.056000 -1.940096e-05
0.056250 -2.007383e-05
0.056500 -2.076845e-05
0.056750 -2.148547e-05
0.057000 -2.222550e-05
0.057250 -2.298921e-05
0.057500 -2.377726e-05
0.057750 -2.459032e-05
0.058000 -2.542911e-05
0.058250 -2.629433e-05
0.058500 -2.718670e-05
0.058750 -2.810699e-05
0.059000 -2.905595e-05
0.059250 -3.003436e-05
0.059500 -3.104302e-05
0.059750 -3.208275e-05
0.060000 -3.315437e-05
0.060250 -3.425874e-05
0.060500 -3.539674e-05
0.060750 -3.656924e-05
0.061000 -3.777716e-05
0.061250 -3.902141e-05
0.061500 -4.030296e-05
0.061750 -4.162275e-05
0.062000 -4.298178e-05
0.062250 -4.438105e-05
0.062500 -4.582158e-05
0.062750 -4.730443e-05
0.063000 -4.883065e-05
0.063250 -5.040133e-05
0.063500 -5.201758e-05
0.063750 -5.368053e-05
0.064000 -5.539133e-05
0.064250 -5.715115e-05
0.064500 -5.896118e-05
0.064750 -6.082265e-05
0.065000 -6.273678e-05
0.065250 -6.470483e-05
0.065500 -6.672810e-05
0.065750 -6.880787e-05
0.066000 -7.094549e-05
0.066250 -7.314230e-05
0.066500 -7.539968e-05
0.066750 -7.771901e-05
0.067000 -8.010173e-05
0.067250 -8.254927e-05
0.067500 -8.506309e-05
0.067750 -8.764469e-05
0.068000 -9.029559e-05
0.068250 -9.301730e-05
0.068500 -9.581140e-05
0.068750 -9.867947e-05
0.069000 -1.016231e-04
0.069250 -1.046439e-04
0.069500 -1.077436e-04
0.069750 -1.109239e-04
0.070000 -1.141863e-04
0.070250 -1.175327e-04
0.070500 -1.209648e-04
0.070750 -1.244844e-04
0.071000 -1.280932e-04
0.071250 -1.317931e-04
0.071500 -1.355859e-04
0.071750 -1.394735e-04
0.072000 -1.434577e-04
0.072250 -1.475405e-04
0.072500 -1.517237e-04
0.072750 -1.560094e-04
0.073000 -1.603994e-04
0.073250 -1.648958e-04
0.073500 -1.695006e-04
0.073750 -1.742157e-04
0.074000 -1.790434e-04
0.074250 -1.839855e-04
0.074500 -1.890442e-04
0.074750 -1.942217e-04
0.075000 -1.995199e-04
0.075250 -2.049411e-04
0.075500 -2.104874e-04
0.075750 -2.161610e-04
0.076000 -2.219641e-04
0.076250 -2.278988e-04
0.076500 -2.339674e-04
0.076750 -2.401721e-04
0.077000 -2.465152e-04
0.077250 -2.529988e-04
0.077500 -2.596253e-04
0.077750 -2.663970e-04
0.078000 -2.733160e-04
0.078250 -2.803848e-04
0.078500 -2.876056e-04
0.078750 -2.949806e-04
0.079000 -3.025123e-04
0.079250 -3.102030e-04
0.079500 -3.180549e-04
0.079750 -3.260703e-04
0.080000 -3.342517e-04
0.080250 -3.426013e-04
0.080500 -3.511215e-04
0.080750 -3.598145e-04
0.081000 -3.686827e-04
0.081250 -3.777284e-04
0.081500 -3.869540e-04
0.081750 -3.963616e-04
0.082000 -4.059536e-04
0.082250 -4.157323e-04
0.082500 -4.257000e-04
0.082750 -4.358588e-04
0.083000 -4.462111e-04
0.083250 -4.567591e-04
0.083500 -4.675049e-04
0.083750 -4.784508e-04
0.084000 -4.895990e-04
0.084250 -5.009515e-04
0.084500 -5.125104e-04
0.084750 -5.242780e-04
0.085000 -5.362562e-04
0.085250 -5.484470e-04
0.085500 -5.608526e-04
0.085750 -5.734747e-04
0.086000 -5.863155e-04
0.086250 -5.993766e-04
0.086500 -6.126601e-04
0.086750 -6.261677e-04
0.087000 -6.399012e-04
0.087250 -6.538623e-04
0.087500 -6.680526e-04
0.087750 -6.824738e-04
0.088000 -6.971275e-04
0.088250 -7.120151e-04
0.088500 -7.271381e-04
0.088750 -7.424979e-04
0.089000 -7.580958e-04
0.089250 -7.739332e-04
0.089500 -7.900111e-04
0.089750 -8.063307e-04
0.090000 -8.228931e-04
0.090250 -8.396993e-04
0.090500 -8.567501e-04
0.090750 -8.740464e-04
0.091000 -8.915889e-04
0.091250 -9.093784e-04
0.091500 -9.274152e-04
0.091750 -9.457000e-04
0.092000 -9.642332e-04
0.092250 -9.830150e-04
0.092500 -1.002046e-03
0.092750 -1.021325e-03
0.093000 -1.040854e-03
0.093250 -1.060631e-03
0.093500 -1.080657e-03
0.093750 -1.100931e-03
0.094000 -1.121453e-03
0.094250 -1.142222e-03
0.094500 -1.163238e-03
0.094750 -1.184499e-03
0.095000 -1.206006e-03
0.095250 -1.227756e-03
0.095500 -1.249749e-03
0.095750 -1.271984e-03
0.096000 -1.294458e-03
0.096250 -1.317171e-03
0.096500 -1.340121e-03
0.096750 -1.363305e-03
0.097000 -1.386722e-03
0.097250 -1.410370e-03
0.097500 -1.434246e-03
0.097750 -1.458348e-03
0.098000 -1.482674e-03
0.098250 -1.507220e-03
0.098500 -1.531984e-03
0.098750 -1.556963e-03
0.099000 -1.582153e-03
0.099250 -1.607551e-03
0.099500 -1.633154e-03
0.099750 -1.658958e-03
0.100000 -1.684958e-03
0.100250 -1.711152e-03
0.100500 -1.737534e-03
0.100750 -1.764100e-03
0.101000 -1.790846e-03
0.101250 -1.817767e-03
0.101500 -1.844858e-03
0.101750 -1.872114e-03
0.102000 -1.899529e-03
0.102250 -1.927098e-03
0.102500 -1.954816e-03
0.102750 -1.982676e-03
0.103000 -2.010673e-03
0.103250 -2.038800e-03
0.103500 -2.067051e-03
0.103750 -2.095419e-03
0.104000 -2.123898e-03
0.104250 -2.152480e-03
0.104500 -2.181158e-03
0.104750 -2.209925e-03
0.105000 -2.238774e-03
0.105250 -2.267696e-03
0.105500 -2.296684e-03
0.105750 -2.325729e-03
0.106000 -2.354824e-03
0.106250 -2.383959e-03
0.106500 -2.413126e-03
0.106750 -2.442317e-03
0.107000 -2.471521e-03
0.107250 -2.500730e-03
0.107500 -2.529934e-03
0.107750 -2.559124e-03
0.108000 -2.588289e-03
0.108250 -2.617420e-03
0.108500 -2.646507e-03
0.108750 -2.675539e-03
0.109000 -2.704505e-03
0.109250 -2.733396e-03
0.109500 -2.762199e-03
0.109750 -2.790904e-03
0.110000 -2.819499e-03
0.110250 -2.847974e-03
0.110500 -2.876316e-03
0.110750 -2.904515e-03
0.111000 -2.932557e-03
0.111250 -2.960431e-03
0.111500 -2.988124e-03
0.111750 -3.015625e-03
0.112000 -3.042921e-03
0.112250 -3.069998e-03
0.112500 -3.096845e-03
0.112750 -3.123449e-03
0.113000 -3.149796e-03
0.113250 -3.175873e-03
0.113500 -3.201667e-03
0.113750 -3.227164e-03
0.114000 -3.252352e-03
0.114250 -3.277215e-03
0.114500 -3.301742e-03
0.114750 -3.325917e-03
0.115000 -3.349726e-03
0.115250 -3.373157e-03
0.115500 -3.396195e-03
0.115750 -3.418825e-03
0.116000 -3.441033e-03
0.116250 -3.462806e-03
0.116500 -3.484128e-03
0.116750 -3.504986e-03
0.117000 -3.525365e-03
0.117250 -3.545250e-03
0.117500 -3.564628e-03
0.117750 -3.583483e-03
0.118000 -3.601800e-03
0.118250 -3.619567e-03
0.118500 -3.636767e-03
0.118750 -3.653387e-03
0.119000 -3.669411e-03
0.119250 -3.684827e-03
0.119500 -3.699618e-03
0.119750 -3.713770e-03
0.120000 -3.727270e-03
0.120250 -3.740103e-03
0.120500 -3.752255e-03
0.120750 -3.763711e-03
0.121000 -3.774457e-03
0.121250 -3.784480e-03
0.121500 -3.793766e-03
0.121750 -3.802300e-03
0.122000 -3.810069e-03
0.122250 -3.817059e-03
0.122500 -3.823258e-03
0.122750 -3.828651e-03
0.123000 -3.833226e-03
0.123250 -3.836970e-03
0.123500 -3.839869e-03
0.123750 -3.841911e-03
0.124000 -3.843084e-03
0.124250 -3.843375e-03
0.124500 -3.842773e-03
0.124750 -3.841265e-03
0.125000 -3.838840e-03
0.125250 -3.835486e-03
0.125500 -3.831193e-03
0.125750 -3.825948e-03
0.126000 -3.819743e-03
0.126250 -3.812565e-03
0.126500 -3.804406e-03
0.126750 -3.795255e-03
0.127000 -3.785103e-03
0.127250 -3.773940e-03
0.127500 -3.761757e-03
0.127750 -3.748546e-03
0.128000 -3.734299e-03
0.128250 -3.719007e-03
0.128500 -3.702663e-03
0.128750 -3.685260e-03
0.129000 -3.666790e-03
0.129250 -3.647247e-03
0.129500 -3.626625e-03
0.129750 -3.604918e-03
0.130000 -3.582121e-03
0.130250 -3.558228e-03
0.130500 -3.533235e-03
0.130750 -3.507137e-03
0.131000 -3.479931e-03
0.131250 -3.451614e-03
0.131500 -3.422182e-03
0.131750 -3.391632e-03
0.132000 -3.359964e-03
0.132250 -3.327174e-03
0.132500 -3.293262e-03
0.132750 -3.258227e-03
0.133000 -3.222069e-03
0.133250 -3.184788e-03
0.133500 -3.146385e-03
0.133750 -3.106860e-03
0.134000 -3.066215e-03
0.134250 -3.024453e-03
0.134500 -2.981576e-03
0.134750 -2.937586e-03
0.135000 -2.892489e-03
0.135250 -2.846286e-03
0.135500 -2.798984e-03
0.135750 -2.750587e-03
0.136000 -2.701101e-03
0.136250 -2.650531e-03
0.136500 -2.598885e-03
0.136750 -2.546169e-03
0.137000 -2.492391e-03
0.137250 -2.437559e-03
0.137500 -2.381681e-03
0.137750 -2.324768e-03
0.138000 -2.266827e-03
0.138250 -2.207871e-03
0.138500 -2.147908e-03
0.138750 -2.086951e-03
0.139000 -2.025011e-03
0.139250 -1.962100e-03
0.139500 -1.898231e-03
0.139750 -1.833416e-03
0.140000 -1.767670e-03
0.140250 -1.701007e-03
0.140500 -1.633442e-03
0.140750 -1.564989e-03
0.141000 -1.495664e-03
0.141250 -1.425483e-03
0.141500 -1.354464e-03
0.141750 -1.282622e-03
0.142000 -1.209975e-03
0.142250 -1.136542e-03
0.142500 -1.062340e-03
0.142750 -9.873892e-04
0.143000 -9.117080e-04
0.143250 -8.353165e-04
0.143500 -7.582347e-04
0.143750 -6.804832e-04
0.144000 -6.020830e-04
0.144250 -5.230554e-04
0.144500 -4.434223e-04
0.144750 -3.632058e-04
0.145000 -2.824285e-04
0.145250 -2.011131e-04
0.145500 -1.192830e-04
0.145750 -3.696184e-05
0.146000 4.582652e-05
0.146250 1.290578e-04
0.146500 2.127074e-04
0.146750 2.967505e-04
0.147000 3.811618e-04
0.147250 4.659159e-04
0.147500 5.509871e-04
0.147750 6.363494e-04
0.148000 7.219764e-04
0.148250 8.078419e-04
0.148500 8.939190e-04
0.148750 9.801808e-04
0.149000 1.066600e-03
0.149250 1.153150e-03
0.149500 1.239803e-03
0.149750 1.326531e-03
0.150000 1.413306e-03
0.150250 1.500101e-03
0.150500 1.586887e-03
0.150750 1.673637e-03
0.151000 1.760322e-03
0.151250 1.846914e-03
0.151500 1.933385e-03
0.151750 2.019706e-03
0.152000 2.105848e-03
0.152250 2.191784e-03
0.152500 2.277484e-03
0.152750 2.362921e-03
0.153000 2.448066e-03
0.153250 2.532890e-03
0.153500 2.617366e-03
0.153750 2.701464e-03
0.154000 2.785158e-03
0.154250 2.868418e-03
0.154500 2.951216e-03
0.154750 3.033526e-03
0.155000 3.115318e-03
0.155250 3.196566e-03
0.155500 3.277242e-03
0.155750 3.357319e-03
0.156000 3.436770e-03
0.156250 3.515568e-03
0.156500 3.593687e-03
0.156750 3.671100e-03
0.157000 3.747781e-03
0.157250 3.823704e-03
0.157500 3.898844e-03
0.157750 3.973176e-03
0.158000 4.046674e-03
0.158250 4.119314e-03
0.158500 4.191072e-03
0.158750 4.261923e-03
0.159000 4.331845e-03
0.159250 4.400814e-03
0.159500 4.468806e-03
0.159750 4.535801e-03
0.160000 4.601774e-03
0.160250 4.666706e-03
0.160500 4.730575e-03
0.160750 4.793360e-03
0.161000 4.855040e-03
0.161250 4.915596e-03
0.161500 4.975009e-03
0.161750 5.033259e-03
0.162000 5.090328e-03
0.162250 5.146199e-03
0.162500 5.200853e-03
0.162750 5.254275e-03
0.163000 5.306447e-03
0.163250 5.357353e-03
0.163500 5.406979e-03
0.163750 5.455310e-03
0.164000 5.502331e-03
0.164250 5.548029e-03
0.164500 5.592391e-03
0.164750 5.635404e-03
0.165000 5.677056e-03
0.165250 5.717336e-03
0.165500 5.756233e-03
0.165750 5.793737e-03
0.166000 5.829838e-03
0.166250 5.864528e-03
0.166500 5.897798e-03
0.166750 5.929640e-03
0.167000 5.960047e-03
0.167250 5.989013e-03
0.167500 6.016531e-03
0.167750 6.042596e-03
0.168000 6.067205e-03
0.168250 6.090351e-03
0.168500 6.112033e-03
0.168750 6.132246e-03
0.169000 6.150990e-03
0.169250 6.168262e-03
0.169500 6.184061e-03
0.169750 6.198386e-03
0.170000 6.211239e-03
0.170250 6.222620e-03
0.170500 6.232530e-03
0.170750 6.240971e-03
0.171000 6.247946e-03
0.171250 6.253458e-03
0.171500 6.257512e-03
0.171750 6.260110e-03
0.172000 6.261259e-03
0.172250 6.260964e-03
0.172500 6.259232e-03
0.172750 6.256067e-03
0.173000 6.251479e-03
0.173250 6.245475e-03
0.173500 6.238063e-03
0.173750 6.229253e-03
0.174000 6.219053e-03
0.174250 6.207474e-03
0.174500 6.194526e-03
0.174750 6.180220e-03
0.175000 6.164568e-03
0.175250 6.147582e-03
0.175500 6.129274e-03
0.175750 6.109658e-03
0.176000 6.088746e-03
0.176250 6.066553e-03
0.176500 6.043094e-03
0.176750 6.018382e-03
0.177000 5.992433e-03
0.177250 5.965264e-03
0.177500 5.936889e-03
0.177750 5.907326e-03
0.178000 5.876591e-03
0.178250 5.844701e-03
0.178500 5.811675e-03
0.178750 5.777530e-03
0.179000 5.742285e-03
0.179250 5.705958e-03
0.179500 5.668567e-03
0.179750 5.630134e-03
0.180000 5.590676e-03
0.180250 5.550214e-03
0.180500 5.508769e-03
0.180750 5.466360e-03
0.181000 5.423007e-03
0.181250 5.378733e-03
0.181500 5.333558e-03
0.181750 5.287504e-03
0.182000 5.240591e-03
0.182250 5.192842e-03
0.182500 5.144279e-03
0.182750 5.094923e-03
0.183000 5.044797e-03
0.183250 4.993924e-03
0.183500 4.942325e-03
0.183750 4.890023e-03
0.184000 4.837041e-03
0.184250 4.783402e-03
0.184500 4.729128e-03
0.184750 4.674243e-03
0.185000 4.618769e-03
0.185250 4.562730e-03
0.185500 4.506148e-03
0.185750 4.449047e-03
0.186000 4.391449e-03
0.186250 4.333378e-03
0.186500 4.274857e-03
0.186750 4.215908e-03
0.187000 4.156555e-03
0.187250 4.096820e-03
0.187500 4.036726e-03
0.187750 3.976297e-03
0.188000 3.915554e-03
0.188250 3.854521e-03
0.188500 3.793220e-03
0.188750 3.731673e-03
0.189000 3.669902e-03
0.189250 3.607929e-03
0.189500 3.545778e-03
0.189750 3.483468e-03
0.190000 3.421022e-03
0.190250 3.358462e-03
0.190500 3.295808e-03
0.190750 3.233082e-03
0.191000 3.170304e-03
0.191250 3.107496e-03
0.191500 3.044678e-03
0.191750 2.981869e-03
0.192000 2.919090e-03
0.192250 2.856361e-03
0.192500 2.793701e-03
0.192750 2.731129e-03
0.193000 2.668665e-03
0.193250 2.606327e-03
0.193500 2.544133e-03
0.193750 2.482102e-03
0.194000 2.420252e-03
0.194250 2.358600e-03
0.194500 2.297164e-03
0.194750 2.235960e-03
0.195000 2.175005e-03
0.195250 2.114316e-03
0.195500 2.053908e-03
0.195750 1.993798e-03
0.196000 1.934001e-03
0.196250 1.874531e-03
0.196500 1.815404e-03
0.196750 1.756635e-03
0.197000 1.698236e-03
0.197250 1.640222e-03
0.197500 1.582607e-03
0.197750 1.525403e-03
0.198000 1.468623e-03
0.198250 1.412280e-03
0.198500 1.356386e-03
0.198750 1.300951e-03
0.199000 1.245988e-03
0.199250 1.191508e-03
0.199500 1.137521e-03
0.199750 1.084037e-03
0.200000 1.031066e-03
0.200250 9.786189e-04
0.200500 9.267035e-04
0.200750 8.753291e-04
0.201000 8.245041e-04
0.201250 7.742368e-04
0.201500 7.245349e-04
0.201750 6.754060e-04
0.202000 6.268570e-04
0.202250 5.788949e-04
0.202500 5.315260e-04
0.202750 4.847564e-04
0.203000 4.385918e-04
0.203250 3.930376e-04
0.203500 3.480990e-04
0.203750 3.037807e-04
0.204000 2.600870e-04
0.204250 2.170221e-04
0.204500 1.745897e-04
0.204750 1.327932e-04
0.205000 9.163586e-05
0.205250 5.112040e-05
0.205500 1.124934e-05
0.205750 -2.797512e-05
0.206000 -6.655108e-05
0.206250 -1.044769e-04
0.206500 -1.417514e-04
0.206750 -1.783734e-04
0.207000 -2.143423e-04
0.207250 -2.496576e-04
0.207500 -2.843191e-04
0.207750 -3.183270e-04
0.208000 -3.516815e-04
0.208250 -3.843833e-04
0.208500 -4.164333e-04
0.208750 -4.478327e-04
0.209000 -4.785827e-04
0.209250 -5.086851e-04
0.209500 -5.381416e-04
0.209750 -5.669544e-04
0.210000 -5.951259e-04
0.210250 -6.226585e-04
0.210500 -6.495549e-04
0.210750 -6.758183e-04
0.211000 -7.014516e-04
0.211250 -7.264584e-04
0.211500 -7.508422e-04
0.211750 -7.746067e-04
0.212000 -7.977559e-04
0.212250 -8.202940e-04
0.212500 -8.422251e-04
0.212750 -8.635538e-04
0.213000 -8.842847e-04
0.213250 -9.044225e-04
0.213500 -9.239723e-04
0.213750 -9.429391e-04
0.214000 -9.613281e-04
0.214250 -9.791447e-04
0.214500 -9.963943e-04
0.214750 -1.013083e-03
0.215000 -1.029215e-03
0.215250 -1.044798e-03
0.215500 -1.059838e-03
0.215750 -1.074339e-03
0.216000 -1.088309e-03
0.216250 -1.101754e-03
0.216500 -1.114680e-03
0.216750 -1.127093e-03
0.217000 -1.139000e-03
0.217250 -1.150408e-03
0.217500 -1.161323e-03
0.217750 -1.171752e-03
0.218000 -1.181701e-03
0.218250 -1.191179e-03
0.218500 -1.200190e-03
0.218750 -1.208743e-03
0.219000 -1.216845e-03
0.219250 -1.224502e-03
0.219500 -1.231721e-03
0.219750 -1.238509e-03
0.220000 -1.244875e-03
0.220250 -1.250823e-03
0.220500 -1.256363e-03
0.220750 -1.261501e-03
0.221000 -1.266244e-03
0.221250 -1.270599e-03
0.221500 -1.274574e-03
0.221750 -1.278175e-03
0.222000 -1.281410e-03
0.222250 -1.284286e-03
0.222500 -1.286810e-03
0.222750 -1.288989e-03
0.223000 -1.290831e-03
0.223250 -1.292342e-03
0.223500 -1.293529e-03
0.223750 -1.294400e-03
0.224000 -1.294962e-03
0.224250 -1.295221e-03
0.224500 -1.295184e-03
0.224750 -1.294858e-03
0.225000 -1.294251e-03
0.225250 -1.293369e-03
0.225500 -1.292218e-03
0.225750 -1.290806e-03
0.226000 -1.289139e-03
0.226250 -1.287223e-03
0.226500 -1.285066e-03
0.226750 -1.282673e-03
0.227000 -1.280052e-03
0.227250 -1.277209e-03
0.227500 -1.274149e-03
0.227750 -1.270879e-03
0.228000 -1.267406e-03
0.228250 -1.263736e-03
0.228500 -1.259874e-03
0.228750 -1.255826e-03
0.229000 -1.251600e-03
0.229250 -1.247199e-03
0.229500 -1.242631e-03
0.229750 -1.237900e-03
0.230000 -1.233013e-03
0.230250 -1.227975e-03
0.230500 -1.222792e-03
0.230750 -1.217469e-03
0.231000 -1.212011e-03
0.231250 -1.206423e-03
0.231500 -1.200712e-03
0.231750 -1.194881e-03
0.232000 -1.188936e-03
0.232250 -1.182882e-03
0.232500 -1.176723e-03
0.232750 -1.170465e-03
0.233000 -1.164113e-03
0.233250 -1.157670e-03
0.233500 -1.151141e-03
0.233750 -1.144532e-03
0.234000 -1.137846e-03
0.234250 -1.131087e-03
0.234500 -1.124260e-03
0.234750 -1.117369e-03
0.235000 -1.110418e-03
0.235250 -1.103411e-03
0.235500 -1.096352e-03
0.235750 -1.089245e-03
0.236000 -1.082093e-03
0.236250 -1.074901e-03
0.236500 -1.067671e-03
0.236750 -1.060408e-03
0.237000 -1.053115e-03
0.237250 -1.045796e-03
0.237500 -1.038452e-03
0.237750 -1.031089e-03
0.238000 -1.023709e-03
0.238250 -1.016314e-03
0.238500 -1.008909e-03
0.238750 -1.001497e-03
0.239000 -9.940789e-04
0.239250 -9.866590e-04
0.239500 -9.792397e-04
0.239750 -9.718238e-04
0.240000 -9.644139e-04
0.240250 -9.570125e-04
0.240500 -9.496222e-04
0.240750 -9.422455e-04
0.241000 -9.348847e-04
0.241250 -9.275421e-04
0.241500 -9.202200e-04
0.241750 -9.129208e-04
0.242000 -9.056464e-04
0.242250 -8.983990e-04
0.242500 -8.911808e-04
0.242750 -8.839936e-04
0.243000 -8.768395e-04
0.243250 -8.697204e-04
0.243500 -8.626380e-04
0.243750 -8.555943e-04
0.244000 -8.485910e-04
0.244250 -8.416298e-04
0.244500 -8.347124e-04
0.244750 -8.278405e-04
0.245000 -8.210156e-04
0.245250 -8.142394e-04
0.245500 -8.075132e-04
0.245750 -8.008388e-04
0.246000 -7.942173e-04
0.246250 -7.876505e-04
0.246500 -7.811395e-04
0.246750 -7.746857e-04
0.247000 -7.682906e-04
0.247250 -7.619554e-04
0.247500 -7.556813e-04
0.247750 -7.494697e-04
0.248000 -7.433218e-04
0.248250 -7.372387e-04
0.248500 -7.312218e-04
0.248750 -7.252720e-04
0.249000 -7.193907e-04
0.249250 -7.135789e-04
0.249500 -7.078377e-04
0.249750 -7.021684e-04
0.250000 -6.965719e-04
0.250250 -6.910493e-04
0.250500 -6.856018e-04
0.250750 -6.802304e-04
0.251000 -6.749361e-04
0.251250 -6.697201e-04
0.251500 -6.645834e-04
0.251750 -6.595271e-04
0.252000 -6.545521e-04
0.252250 -6.496597e-04
0.252500 -6.448507e-04
0.252750 -6.401263e-04
0.253000 -6.354876e-04
0.253250 -6.309356e-04
0.253500 -6.264715e-04
0.253750 -6.220962e-04
0.254000 -6.178110e-04
0.254250 -6.136169e-04
0.254500 -6.095150e-04
0.254750 -6.055066e-04
0.255000 -6.015927e-04
0.255250 -5.977746e-04
0.255500 -5.940534e-04
0.255750 -5.904304e-04
0.256000 -5.869068e-04
0.256250 -5.834839e-04
0.256500 -5.801630e-04
0.256750 -5.769453e-04
0.257000 -5.738323e-04
0.257250 -5.708253e-04
0.257500 -5.679257e-04
0.257750 -5.651349e-04
0.258000 -5.624545e-04
0.258250 -5.598859e-04
0.258500 -5.574306e-04
0.258750 -5.550902e-04
0.259000 -5.528664e-04
0.259250 -5.507607e-04
0.259500 -5.487750e-04
0.259750 -5.469108e-04
0.260000 -5.451701e-04
0.260250 -5.435546e-04
0.260500 -5.420661e-04
0.260750 -5.407067e-04
0.261000 -5.394782e-04
0.261250 -5.383827e-04
0.261500 -5.374223e-04
0.261750 -5.365990e-04
0.262000 -5.359150e-04
0.262250 -5.353726e-04
0.262500 -5.349741e-04
0.262750 -5.347216e-04
0.263000 -5.346178e-04
0.263250 -5.346650e-04
0.263500 -5.348657e-04
0.263750 -5.352224e-04
0.264000 -5.357380e-04
0.264250 -5.364149e-04
0.264500 -5.372561e-04
0.264750 -5.382643e-04
0.265000 -5.394424e-04
0.265250 -5.407934e-04
0.265500 -5.423203e-04
0.265750 -5.440263e-04
0.266000 -5.459144e-04
0.266250 -5.479879e-04
0.266500 -5.502502e-04
0.266750 -5.527047e-04
0.267000 -5.553547e-04
0.267250 -5.582039e-04
0.267500 -5.612557e-04
0.267750 -5.645141e-04
0.268000 -5.679826e-04
0.268250 -5.716651e-04
0.268500 -5.755656e-04
0.268750 -5.796880e-04
0.269000 -5.840364e-04
0.269250 -5.886150e-04
0.269500 -5.934281e-04
0.269750 -5.984798e-04
0.270000 -6.037747e-04
0.270250 -6.093172e-04
0.270500 -6.151119e-04
0.270750 -6.211634e-04
0.271000 -6.274764e-04
0.271250 -6.340558e-04
0.271500 -6.409064e-04
0.271750 -6.480333e-04
0.272000 -6.554414e-04
0.272250 -6.631359e-04
0.272500 -6.711221e-04
0.272750 -6.794053e-04
0.273000 -6.879908e-04
0.273250 -6.968841e-04
0.273500 -7.060908e-04
0.273750 -7.156165e-04
0.274000 -7.254669e-04
0.274250 -7.356479e-04
0.274500 -7.461653e-04
0.274750 -7.570250e-04
0.275000 -7.682332e-04
0.275250 -7.797959e-04
0.275500 -7.917193e-04
0.275750 -8.040097e-04
0.276000 -8.166735e-04
0.276250 -8.297171e-04
0.276500 -8.431469e-04
0.276750 -8.569696e-04
0.277000 -8.711917e-04
0.277250 -8.858201e-04
0.277500 -9.008614e-04
0.277750 -9.163226e-04
0.278000 -9.322104e-04
0.278250 -9.485320e-04
0.278500 -9.652944e-04
0.278750 -9.825046e-04
0.279000 -1.000170e-03
0.279250 -1.018297e-03
0.279500 -1.036894e-03
0.279750 -1.055968e-03
0.280000 -1.075525e-03
0.280250 -1.095575e-03
0.280500 -1.116123e-03
0.280750 -1.137178e-03
0.281000 -1.158747e-03
0.281250 -1.180838e-03
0.281500 -1.203457e-03
0.281750 -1.226614e-03
0.282000 -1.250315e-03
0.282250 -1.274568e-03
0.282500 -1.299381e-03
0.282750 -1.324762e-03
0.283000 -1.350718e-03
0.283250 -1.377257e-03
0.283500 -1.404387e-03
0.283750 -1.432115e-03
0.284000 -1.460449e-03
0.284250 -1.489398e-03
0.284500 -1.518968e-03
0.284750 -1.549167e-03
0.285000 -1.580003e-03
0.285250 -1.611484e-03
0.285500 -1.643617e-03
0.285750 -1.676409e-03
0.286000 -1.709870e-03
0.286250 -1.744004e-03
0.286500 -1.778821e-03
0.286750 -1.814328e-03
0.287000 -1.850531e-03
0.287250 -1.887438e-03
0.287500 -1.925057e-03
0.287750 -1.963393e-03
0.288000 -2.002455e-03
0.288250 -2.042249e-03
0.288500 -2.082782e-03
0.288750 -2.124061e-03
0.289000 -2.166091e-03
0.289250 -2.208880e-03
0.289500 -2.252434e-03
0.289750 -2.296759e-03
0.290000 -2.341860e-03
0.290250 -2.387745e-03
0.290500 -2.434418e-03
0.290750 -2.481885e-03
0.291000 -2.530152e-03
0.291250 -2.579224e-03
0.291500 -2.629105e-03
0.291750 -2.679801e-03
0.292000 -2.731315e-03
0.292250 -2.783654e-03
0.292500 -2.836820e-03
0.292750 -2.890817e-03
0.293000 -2.945650e-03
0.293250 -3.001322e-03
0.293500 -3.057836e-03
0.293750 -3.115195e-03
0.294000 -3.173402e-03
0.294250 -3.232458e-03
0.294500 -3.292367e-03
0.294750 -3.353130e-03
0.295000 -3.414749e-03
0.295250 -3.477224e-03
0.295500 -3.540558e-03
0.295750 -3.604749e-03
0.296000 -3.669799e-03
0.296250 -3.735707e-03
0.296500 -3.802473e-03
0.296750 -3.870096e-03
0.297000 -3.938575e-03
0.297250 -4.007908e-03
0.297500 -4.078093e-03
0.297750 -4.149128e-03
0.298000 -4.221010e-03
0.298250 -4.293736e-03
0.298500 -4.367302e-03
0.298750 -4.441703e-03
0.299000 -4.516937e-03
0.299250 -4.592996e-03
0.299500 -4.669877e-03
0.299750 -4.747573e-03
0.300000 -4.826078e-03
0.300250 -4.905384e-03
0.300500 -4.985485e-03
0.300750 -5.066373e-03
0.301000 -5.148039e-03
0.301250 -5.230474e-03
0.301500 -5.313668e-03
0.301750 -5.397613e-03
0.302000 -5.482297e-03
0.302250 -5.567710e-03
0.302500 -5.653839e-03
0.302750 -5.740673e-03
0.303000 -5.828198e-03
0.303250 -5.916402e-03
0.303500 -6.005271e-03
0.303750 -6.094790e-03
0.304000 -6.184943e-03
0.304250 -6.275717e-03
0.304500 -6.367093e-03
0.304750 -6.459055e-03
0.305000 -6.551586e-03
0.305250 -6.644668e-03
0.305500 -6.738282e-03
0.305750 -6.832408e-03
0.306000 -6.927026e-03
0.306250 -7.022117e-03
0.306500 -7.117658e-03
0.306750 -7.213627e-03
0.307000 -7.310003e-03
0.307250 -7.406762e-03
0.307500 -7.503879e-03
0.307750 -7.601332e-03
0.308000 -7.699094e-03
0.308250 -7.797139e-03
0.308500 -7.895442e-03
0.308750 -7.993975e-03
0.309000 -8.092711e-03
0.309250 -8.191620e-03
0.309500 -8.290675e-03
0.309750 -8.389845e-03
0.310000 -8.489099e-03
0.310250 -8.588408e-03
0.310500 -8.687740e-03
0.310750 -8.787062e-03
0.311000 -8.886341e-03
0.311250 -8.985544e-03
0.311500 -9.084636e-03
0.311750 -9.183584e-03
0.312000 -9.282352e-03
0.312250 -9.380903e-03
0.312500 -9.479202e-03
0.312750 -9.577211e-03
0.313000 -9.674892e-03
0.313250 -9.772208e-03
0.313500 -9.869118e-03
0.313750 -9.965585e-03
0.314000 -1.006157e-02
0.314250 -1.015703e-02
0.314500 -1.025192e-02
0.314750 -1.034620e-02
0.315000 -1.043984e-02
0.315250 -1.053279e-02
0.315500 -1.062500e-02
0.315750 -1.071643e-02
0.316000 -1.080704e-02
0.316250 -1.089678e-02
0.316500 -1.098562e-02
0.316750 -1.107349e-02
0.317000 -1.116037e-02
0.317250 -1.124619e-02
0.317500 -1.133093e-02
0.317750 -1.141452e-02
0.318000 -1.149693e-02
0.318250 -1.157810e-02
0.318500 -1.165798e-02
0.318750 -1.173654e-02
0.319000 -1.181372e-02
0.319250 -1.188948e-02
0.319500 -1.196375e-02
0.319750 -1.203651e-02
0.320000 -1.210769e-02
0.320250 -1.217725e-02
0.320500 -1.224514e-02
0.320750 -1.231132e-02
0.321000 -1.237572e-02
0.321250 -1.243831e-02
0.321500 -1.249902e-02
0.321750 -1.255783e-02
0.322000 -1.261466e-02
0.322250 -1.266948e-02
0.322500 -1.272224e-02
0.322750 -1.277289e-02
0.323000 -1.282137e-02
0.323250 -1.286764e-02
0.323500 -1.291166e-02
0.323750 -1.295336e-02
0.324000 -1.299271e-02
0.324250 -1.302966e-02
0.324500 -1.306416e-02
0.324750 -1.309616e-02
0.325000 -1.312562e-02
0.325250 -1.315248e-02
0.325500 -1.317671e-02
0.325750 -1.319826e-02
0.326000 -1.321708e-02
0.326250 -1.323313e-02
0.326500 -1.324636e-02
0.326750 -1.325674e-02
0.327000 -1.326421e-02
0.327250 -1.326874e-02
0.327500 -1.327028e-02
0.327750 -1.326880e-02
0.328000 -1.326425e-02
0.328250 -1.325659e-02