-0.138818 -5.675615e-07
-0.138568 -5.642282e-07
-0.138318 -5.609642e-07
-0.138068 -5.577706e-07
-0.137818 -5.546480e-07
-0.137568 -5.515973e-07
-0.137318 -5.486194e-07
-0.137068 -5.457151e-07
-0.136818 -5.428850e-07
-0.136568 -5.401299e-07
-0.136318 -5.374506e-07
-0.136068 -5.348477e-07
-0.135818 -5.323219e-07
-0.135568 -5.298738e-07
-0.135318 -5.275041e-07
-0.135068 -5.252134e-07
-0.134818 -5.230021e-07
-0.134568 -5.208709e-07
-0.134318 -5.188203e-07
-0.134068 -5.168508e-07
-0.133818 -5.149628e-07
-0.133568 -5.131568e-07
-0.133318 -5.114332e-07
-0.133068 -5.097924e-07
-0.132818 -5.082348e-07
-0.132568 -5.067607e-07
-0.132318 -5.053704e-07
-0.132068 -5.040642e-07
-0.131818 -5.028424e-07
-0.131568 -5.017052e-07
-0.131318 -5.006528e-07
-0.131068 -4.996855e-07
-0.130818 -4.988033e-07
-0.130568 -4.980064e-07
-0.130318 -4.972950e-07
-0.130068 -4.966690e-07
-0.129818 -4.961286e-07
-0.129568 -4.956738e-07
-0.129318 -4.953046e-07
-0.129068 -4.950209e-07
-0.128818 -4.948227e-07
-0.128568 -4.947100e-07
-0.128318 -4.946826e-07
-0.128068 -4.947404e-07
-0.127818 -4.948833e-07
-0.127568 -4.951111e-07
-0.127318 -4.954235e-07
-0.127068 -4.958204e-07
-0.126818 -4.963014e-07
-0.126568 -4.968664e-07
-0.126318 -4.975149e-07
-0.126068 -4.982467e-07
-0.125818 -4.990614e-07
-0.125568 -4.999587e-07
-0.125318 -5.009380e-07
-0.125068 -5.019991e-07
-0.124818 -5.031413e-07
-0.124568 -5.043643e-07
-0.124318 -5.056676e-07
-0.124068 -5.070505e-07
-0.123818 -5.085126e-07
-0.123568 -5.100533e-07
-0.123318 -5.116720e-07
-0.123068 -5.133680e-07
-0.122818 -5.151407e-07
-0.122568 -5.169895e-07
-0.122318 -5.189136e-07
-0.122068 -5.209123e-07
-0.121818 -5.229850e-07
-0.121568 -5.251307e-07
-0.121318 -5.273488e-07
-0.121068 -5.296384e-07
-0.120818 -5.319988e-07
-0.120568 -5.344290e-07
-0.120318 -5.369283e-07
-0.120068 -5.394957e-07
-0.119818 -5.421303e-07
-0.119568 -5.448311e-07
-0.119318 -5.475974e-07
-0.119068 -5.504280e-07
-0.118818 -5.533220e-07
-0.118568 -5.562784e-07
-0.118318 -5.592961e-07
-0.118068 -5.623742e-07
-0.117818 -5.655116e-07
-0.117568 -5.687072e-07
-0.117318 -5.719599e-07
-0.117068 -5.752686e-07
-0.116818 -5.786322e-07
-0.116568 -5.820496e-07
-0.116318 -5.855195e-07
-0.116068 -5.890409e-07
-0.115818 -5.926125e-07
-0.115568 -5.962331e-07
-0.115318 -5.999015e-07
-0.115068 -6.036166e-07
-0.114818 -6.073770e-07
-0.114568 -6.111815e-07
-0.114318 -6.150288e-07
-0.114068 -6.189177e-07
-0.113818 -6.228469e-07
-0.113568 -6.268151e-07
-0.113318 -6.308209e-07
-0.113068 -6.348630e-07
-0.112818 -6.389402e-07
-0.112568 -6.430510e-07
-0.112318 -6.471942e-07
-0.112068 -6.513683e-07
-0.111818 -6.555719e-07
-0.111568 -6.598038e-07
-0.111318 -6.640625e-07
-0.111068 -6.683467e-07
-0.110818 -6.726549e-07
-0.110568 -6.769857e-07
-0.110318 -6.813378e-07
-0.110068 -6.857096e-07
-0.109818 -6.900999e-07
-0.109568 -6.945071e-07
-0.109318 -6.989298e-07
-0.109068 -7.033667e-07
-0.108818 -7.078163e-07
-0.108568 -7.122770e-07
-0.108318 -7.167476e-07
-0.108068 -7.212265e-07
-0.107818 -7.257123e-07
-0.107568 -7.302036e-07
-0.107318 -7.346989e-07
-0.107068 -7.391968e-07
-0.106818 -7.436958e-07
-0.106568 -7.481945e-07
-0.106318 -7.526914e-07
-0.106068 -7.571852e-07
-0.105818 -7.616743e-07
-0.105568 -7.661573e-07
-0.105318 -7.706328e-07
-0.105068 -7.750994e-07
-0.104818 -7.795556e-07
-0.104568 -7.840000e-07
-0.104318 -7.884313e-07
-0.104068 -7.928479e-07
-0.103818 -7.972484e-07
-0.103568 -8.016316e-07
-0.103318 -8.059959e-07
-0.103068 -8.103401e-07
-0.102818 -8.146626e-07
-0.102568 -8.189622e-07
-0.102318 -8.232375e-07
-0.102068 -8.274871e-07
-0.101818 -8.317097e-07
-0.101568 -8.359039e-07
-0.101318 -8.400684e-07
-0.101068 -8.442019e-07
-0.100818 -8.483031e-07
-0.100568 -8.523707e-07
-0.100318 -8.564034e-07
-0.100068 -8.603999e-07
-0.099818 -8.643589e-07
-0.099568 -8.682793e-07
-0.099318 -8.721598e-07
-0.099068 -8.759992e-07
-0.098818 -8.797962e-07
-0.098568 -8.835496e-07
-0.098318 -8.872583e-07
-0.098068 -8.909211e-07
-0.097818 -8.945369e-07
-0.097568 -8.981045e-07
-0.097318 -9.016228e-07
-0.097068 -9.050907e-07
-0.096818 -9.085071e-07
-0.096568 -9.118709e-07
-0.096318 -9.151810e-07
-0.096068 -9.184366e-07
-0.095818 -9.216364e-07
-0.095568 -9.247795e-07
-0.095318 -9.278650e-07
-0.095068 -9.308918e-07
-0.094818 -9.338591e-07
-0.094568 -9.367658e-07
-0.094318 -9.396111e-07
-0.094068 -9.423940e-07
-0.093818 -9.451138e-07
-0.093568 -9.477696e-07
-0.093318 -9.503605e-07
-0.093068 -9.528857e-07
-0.092818 -9.553444e-07
-0.092568 -9.577359e-07
-0.092318 -9.600594e-07
-0.092068 -9.623142e-07
-0.091818 -9.644996e-07
-0.091568 -9.666149e-07
-0.091318 -9.686594e-07
-0.091068 -9.706326e-07
-0.090818 -9.725337e-07
-0.090568 -9.743622e-07
-0.090318 -9.761176e-07
-0.090068 -9.777992e-07
-0.089818 -9.794066e-07
-0.089568 -9.809392e-07
-0.089318 -9.823966e-07
-0.089068 -9.837783e-07
-0.088818 -9.850839e-07
-0.088568 -9.863129e-07
-0.088318 -9.874651e-07
-0.088068 -9.885400e-07
-0.087818 -9.895372e-07
-0.087568 -9.904566e-07
-0.087318 -9.912977e-07
-0.087068 -9.920603e-07
-0.086818 -9.927443e-07
-0.086568 -9.933493e-07
-0.086318 -9.938752e-07
-0.086068 -9.943217e-07
-0.085818 -9.946889e-07
-0.085568 -9.949764e-07
-0.085318 -9.951844e-07
-0.085068 -9.953126e-07
-0.084818 -9.953610e-07
-0.084568 -9.953297e-07
-0.084318 -9.952185e-07
-0.084068 -9.950276e-07
-0.083818 -9.947570e-07
-0.083568 -9.944067e-07
-0.083318 -9.939770e-07
-0.083068 -9.934678e-07
-0.082818 -9.928793e-07
-0.082568 -9.922118e-07
-0.082318 -9.914653e-07
-0.082068 -9.906402e-07
-0.081818 -9.897367e-07
-0.081568 -9.887550e-07
-0.081318 -9.876954e-07
-0.081068 -9.865583e-07
-0.080818 -9.853440e-07
-0.080568 -9.840528e-07
-0.080318 -9.826852e-07
-0.080068 -9.812415e-07
-0.079818 -9.797222e-07
-0.079568 -9.781277e-07
-0.079318 -9.764585e-07
-0.079068 -9.747152e-07
-0.078818 -9.728981e-07
-0.078568 -9.710079e-07
-0.078318 -9.690452e-07
-0.078068 -9.670105e-07
-0.077818 -9.649044e-07
-0.077568 -9.627276e-07
-0.077318 -9.604807e-07
-0.077068 -9.581644e-07
-0.076818 -9.557794e-07
-0.076568 -9.533264e-07
-0.076318 -9.508061e-07
-0.076068 -9.482192e-07
-0.075818 -9.455667e-07
-0.075568 -9.428492e-07
-0.075318 -9.400675e-07
-0.075068 -9.372226e-07
-0.074818 -9.343151e-07
-0.074568 -9.313462e-07
-0.074318 -9.283165e-07
-0.074068 -9.252270e-07
-0.073818 -9.220786e-07
-0.073568 -9.188723e-07
-0.073318 -9.156090e-07
-0.073068 -9.122897e-07
-0.072818 -9.089154e-07
-0.072568 -9.054871e-07
-0.072318 -9.020058e-07
-0.072068 -8.984726e-07
-0.071818 -8.948884e-07
-0.071568 -8.912545e-07
-0.071318 -8.875717e-07
-0.071068 -8.838414e-07
-0.070818 -8.800644e-07
-0.070568 -8.762421e-07
-0.070318 -8.723754e-07
-0.070068 -8.684657e-07
-0.069818 -8.645139e-07
-0.069568 -8.605213e-07
-0.069318 -8.564892e-07
-0.069068 -8.524185e-07
-0.068818 -8.483107e-07
-0.068568 -8.441669e-07
-0.068318 -8.399883e-07
-0.068068 -8.357761e-07
-0.067818 -8.315317e-07
-0.067568 -8.272562e-07
-0.067318 -8.229509e-07
-0.067068 -8.186172e-07
-0.066818 -8.142562e-07
-0.066568 -8.098692e-07
-0.066318 -8.054577e-07
-0.066068 -8.010228e-07
-0.065818 -7.965658e-07
-0.065568 -7.920881e-07
-0.065318 -7.875910e-07
-0.065068 -7.830759e-07
-0.064818 -7.785440e-07
-0.064568 -7.739966e-07
-0.064318 -7.694352e-07
-0.064068 -7.648610e-07
-0.063818 -7.602754e-07
-0.063568 -7.556797e-07
-0.063318 -7.510753e-07
-0.063068 -7.464635e-07
-0.062818 -7.418457e-07
-0.062568 -7.372233e-07
-0.062318 -7.325975e-07
-0.062068 -7.279697e-07
-0.061818 -7.233414e-07
-0.061568 -7.187137e-07
-0.061318 -7.140881e-07
-0.061068 -7.094660e-07
-0.060818 -7.048486e-07
-0.060568 -7.002373e-07
-0.060318 -6.956335e-07
-0.060068 -6.910384e-07
-0.059818 -6.864535e-07
-0.059568 -6.818800e-07
-0.059318 -6.773193e-07
-0.059068 -6.727726e-07
-0.058818 -6.682414e-07
-0.058568 -6.637269e-07
-0.058318 -6.592303e-07
-0.058068 -6.547531e-07
-0.057818 -6.502965e-07
-0.057568 -6.458618e-07
-0.057318 -6.414502e-07
-0.057068 -6.370630e-07
-0.056818 -6.327015e-07
-0.056568 -6.283669e-07
-0.056318 -6.240605e-07
-0.056068 -6.197835e-07
-0.055818 -6.155371e-07
-0.055568 -6.113226e-07
-0.055318 -6.071410e-07
-0.055068 -6.029937e-07
-0.054818 -5.988817e-07
-0.054568 -5.948064e-07
-0.054318 -5.907687e-07
-0.054068 -5.867699e-07
-0.053818 -5.828111e-07
-0.053568 -5.788933e-07
-0.053318 -5.750178e-07
-0.053068 -5.711856e-07
-0.052818 -5.673977e-07
-0.052568 -5.636553e-07
-0.052318 -5.599593e-07
-0.052068 -5.563109e-07
-0.051818 -5.527110e-07
-0.051568 -5.491605e-07
-0.051318 -5.456606e-07
-0.051068 -5.422122e-07
-0.050818 -5.388162e-07
-0.050568 -5.354736e-07
-0.050318 -5.321853e-07
-0.050068 -5.289521e-07
-0.049818 -5.257750e-07
-0.049568 -5.226549e-07
-0.049318 -5.195925e-07
-0.049068 -5.165887e-07
-0.048818 -5.136444e-07
-0.048568 -5.107603e-07
-0.048318 -5.079372e-07
-0.048068 -5.051758e-07
-0.047818 -5.024769e-07
-0.047568 -4.998413e-07
-0.047318 -4.972695e-07
-0.047068 -4.947623e-07
-0.046818 -4.923203e-07
-0.046568 -4.899442e-07
-0.046318 -4.876346e-07
-0.046068 -4.853920e-07
-0.045818 -4.832171e-07
-0.045568 -4.811104e-07
-0.045318 -4.790725e-07
-0.045068 -4.771038e-07
-0.044818 -4.752048e-07
-0.044568 -4.733760e-07
-0.044318 -4.716179e-07
-0.044068 -4.699309e-07
-0.043818 -4.683153e-07
-0.043568 -4.667716e-07
-0.043318 -4.653001e-07
-0.043068 -4.639011e-07
-0.042818 -4.625750e-07
-0.042568 -4.613221e-07
-0.042318 -4.601425e-07
-0.042068 -4.590367e-07
-0.041818 -4.580047e-07
-0.041568 -4.570468e-07
-0.041318 -4.561632e-07
-0.041068 -4.553540e-07
-0.040818 -4.546194e-07
-0.040568 -4.539594e-07
-0.040318 -4.533742e-07
-0.040068 -4.528638e-07
-0.039818 -4.524283e-07
-0.039568 -4.520676e-07
-0.039318 -4.517818e-07
-0.039068 -4.515708e-07
-0.038818 -4.514347e-07
-0.038568 -4.513732e-07
-0.038318 -4.513864e-07
-0.038068 -4.514741e-07
-0.037818 -4.516362e-07
-0.037568 -4.518724e-07
-0.037318 -4.521827e-07
-0.037068 -4.525668e-07
-0.036818 -4.530244e-07
-0.036568 -4.535554e-07
-0.036318 -4.541594e-07
-0.036068 -4.548362e-07
-0.035818 -4.555854e-07
-0.035568 -4.564068e-07
-0.035318 -4.572998e-07
-0.035068 -4.582642e-07
-0.034818 -4.592996e-07
-0.034568 -4.604054e-07
-0.034318 -4.615813e-07
-0.034068 -4.628269e-07
-0.033818 -4.641415e-07
-0.033568 -4.655247e-07
-0.033318 -4.669761e-07
-0.033068 -4.684949e-07
-0.032818 -4.700807e-07
-0.032568 -4.717328e-07
-0.032318 -4.734507e-07
-0.032068 -4.752337e-07
-0.031818 -4.770811e-07
-0.031568 -4.789924e-07
-0.031318 -4.809668e-07
-0.031068 -4.830035e-07
-0.030818 -4.851020e-07
-0.030568 -4.872614e-07
-0.030318 -4.894809e-07
-0.030068 -4.917599e-07
-0.029818 -4.940974e-07
-0.029568 -4.964927e-07
-0.029318 -4.989450e-07
-0.029068 -5.014534e-07
-0.028818 -5.040170e-07
-0.028568 -5.066350e-07
-0.028318 -5.093065e-07
-0.028068 -5.120305e-07
-0.027818 -5.148061e-07
-0.027568 -5.176324e-07
-0.027318 -5.205085e-07
-0.027068 -5.234333e-07
-0.026818 -5.264059e-07
-0.026568 -5.294252e-07
-0.026318 -5.324903e-07
-0.026068 -5.356002e-07
-0.025818 -5.387537e-07
-0.025568 -5.419499e-07
-0.025318 -5.451877e-07
-0.025068 -5.484660e-07
-0.024818 -5.517837e-07
-0.024568 -5.551397e-07
-0.024318 -5.585329e-07
-0.024068 -5.619623e-07
-0.023818 -5.654266e-07
-0.023568 -5.689247e-07
-0.023318 -5.724555e-07
-0.023068 -5.760179e-07
-0.022818 -5.796105e-07
-0.022568 -5.832324e-07
-0.022318 -5.868823e-07
-0.022068 -5.905589e-07
-0.021818 -5.942612e-07
-0.021568 -5.979879e-07
-0.021318 -6.017378e-07
-0.021068 -6.055097e-07
-0.020818 -6.093023e-07
-0.020568 -6.131145e-07
-0.020318 -6.169449e-07
-0.020068 -6.207924e-07
-0.019818 -6.246558e-07
-0.019568 -6.285337e-07
-0.019318 -6.324249e-07
-0.019068 -6.363282e-07
-0.018818 -6.402423e-07
-0.018568 -6.441660e-07
-0.018318 -6.480979e-07
-0.018068 -6.520369e-07
-0.017818 -6.559817e-07
-0.017568 -6.599310e-07
-0.017318 -6.638836e-07
-0.017068 -6.678381e-07
-0.016818 -6.717934e-07
-0.016568 -6.757482e-07
-0.016318 -6.797011e-07
-0.016068 -6.836510e-07
-0.015818 -6.875966e-07
-0.015568 -6.915367e-07
-0.015318 -6.954699e-07
-0.015068 -6.993951e-07
-0.014818 -7.033110e-07
-0.014568 -7.072163e-07
-0.014318 -7.111099e-07
-0.014068 -7.149904e-07
-0.013818 -7.188567e-07
-0.013568 -7.227076e-07
-0.013318 -7.265418e-07
-0.013068 -7.303582e-07
-0.012818 -7.341554e-07
-0.012568 -7.379324e-07
-0.012318 -7.416879e-07
-0.012068 -7.454208e-07
-0.011818 -7.491299e-07
-0.011568 -7.528140e-07
-0.011318 -7.564720e-07
-0.011068 -7.601028e-07
-0.010818 -7.637051e-07
-0.010568 -7.672779e-07
-0.010318 -7.708201e-07
-0.010068 -7.743305e-07
-0.009818 -7.778082e-07
-0.009568 -7.812519e-07
-0.009318 -7.846606e-07
-0.009068 -7.880333e-07
-0.008818 -7.913689e-07
-0.008568 -7.946665e-07
-0.008318 -7.979249e-07
-0.008068 -8.011431e-07
-0.007818 -8.043203e-07
-0.007568 -8.074554e-07
-0.007318 -8.105474e-07
-0.007068 -8.135955e-07
-0.006818 -8.165986e-07
-0.006568 -8.195559e-07
-0.006318 -8.224665e-07
-0.006068 -8.253294e-07
-0.005818 -8.281439e-07
-0.005568 -8.309091e-07
-0.005318 -8.336241e-07
-0.005068 -8.362882e-07
-0.004818 -8.389005e-07
-0.004568 -8.414603e-07
-0.004318 -8.439668e-07
-0.004068 -8.464193e-07
-0.003818 -8.488170e-07
-0.003568 -8.511593e-07
-0.003318 -8.534456e-07
-0.003068 -8.556750e-07
-0.002818 -8.578471e-07
-0.002568 -8.599611e-07
-0.002318 -8.620166e-07
-0.002068 -8.640129e-07
-0.001818 -8.659494e-07
-0.001568 -8.678257e-07
-0.001318 -8.696413e-07
-0.001068 -8.713956e-07
-0.000818 -8.730883e-07
-0.000568 -8.747189e-07
-0.000318 -8.762869e-07
-0.000068 -8.777921e-07
0.000182 -8.792340e-07
0.000432 -8.806123e-07
0.000682 -8.819268e-07
0.000932 -8.831771e-07
0.001182 -8.843629e-07
0.001432 -8.854842e-07
0.001682 -8.865406e-07
0.001932 -8.875320e-07
0.002182 -8.884583e-07
0.002432 -8.893193e-07
0.002682 -8.901150e-07
0.002932 -8.908454e-07
0.003182 -8.915103e-07
0.003432 -8.921099e-07
0.003682 -8.926441e-07
0.003932 -8.931130e-07
0.004182 -8.935168e-07
0.004432 -8.938556e-07
0.004682 -8.941296e-07
0.004932 -8.943389e-07
0.005182 -8.944838e-07
0.005432 -8.945646e-07
0.005682 -8.945817e-07
0.005932 -8.945353e-07
0.006182 -8.944258e-07
0.006432 -8.942538e-07
0.006682 -8.940196e-07
0.006932 -8.937237e-07
0.007182 -8.933668e-07
0.007432 -8.929494e-07
0.007682 -8.924721e-07
0.007932 -8.919357e-07
0.008182 -8.913408e-07
0.008432 -8.906883e-07
0.008682 -8.899788e-07
0.008932 -8.892134e-07
0.009182 -8.883929e-07
0.009432 -8.875183e-07
0.009682 -8.865906e-07
0.009932 -8.856108e-07
0.010182 -8.845802e-07
0.010432 -8.834998e-07
0.010682 -8.823710e-07
0.010932 -8.811949e-07
0.011182 -8.799731e-07
0.011432 -8.787068e-07
0.011682 -8.773976e-07
0.011932 -8.760470e-07
0.012182 -8.746567e-07
0.012432 -8.732283e-07
0.012682 -8.717636e-07
0.012932 -8.702644e-07
0.013182 -8.687327e-07
0.013432 -8.671704e-07
0.013682 -8.655796e-07
0.013932 -8.639624e-07
0.014182 -8.623212e-07
0.014432 -8.606582e-07
0.014682 -8.589759e-07
0.014932 -8.572767e-07
0.015182 -8.555634e-07
0.015432 -8.538385e-07
0.015682 -8.521051e-07
0.015932 -8.503659e-07
0.016182 -8.486241e-07
0.016432 -8.468828e-07
0.016682 -8.451452e-07
0.016932 -8.434149e-07
0.017182 -8.416954e-07
0.017432 -8.399903e-07
0.017682 -8.383034e-07
0.017932 -8.366388e-07
0.018182 -8.350005e-07
0.018432 -8.333927e-07
0.018682 -8.318200e-07
0.018932 -8.302869e-07
0.019182 -8.287982e-07
0.019432 -8.273588e-07
0.019682 -8.259739e-07
0.019932 -8.246487e-07
0.020182 -8.233888e-07
0.020432 -8.222000e-07
0.020682 -8.210881e-07
0.020932 -8.200593e-07
0.021182 -8.191201e-07
0.021432 -8.182770e-07
0.021682 -8.175369e-07
0.021932 -8.169070e-07
0.022182 -8.163947e-07
0.022432 -8.160076e-07
0.022682 -8.157538e-07
0.022932 -8.156414e-07
0.023182 -8.156791e-07
0.023432 -8.158758e-07
0.023682 -8.162407e-07
0.023932 -8.167833e-07
0.024182 -8.175136e-07
0.024432 -8.184419e-07
0.024682 -8.195789e-07
0.024932 -8.209356e-07
0.025182 -8.225236e-07
0.025432 -8.243547e-07
0.025682 -8.264414e-07
0.025932 -8.287964e-07
0.026182 -8.314332e-07
0.026432 -8.343654e-07
0.026682 -8.376074e-07
0.026932 -8.411740e-07
0.027182 -8.450807e-07
0.027432 -8.493434e-07
0.027682 -8.539787e-07
0.027932 -8.590037e-07
0.028182 -8.644363e-07
0.028432 -8.702950e-07
0.028682 -8.765988e-07
0.028932 -8.833677e-07
0.029182 -8.906223e-07
0.029432 -8.983838e-07
0.029682 -9.066745e-07
0.029932 -9.155172e-07
0.030182 -9.249359e-07
0.030432 -9.349551e-07
0.030682 -9.456003e-07
0.030932 -9.568982e-07
0.031182 -9.688762e-07
0.031432 -9.815627e-07
0.031682 -9.949872e-07
0.031932 -1.009180e-06
0.032182 -1.024174e-06
0.032432 -1.040000e-06
0.032682 -1.056694e-06
0.032932 -1.074290e-06
0.033182 -1.092824e-06
0.033432 -1.112335e-06
0.033682 -1.132862e-06
0.033932 -1.154446e-06
0.034182 -1.177127e-06
0.034432 -1.200951e-06
0.034682 -1.225961e-06
0.034932 -1.252204e-06
0.035182 -1.279729e-06
0.035432 -1.308586e-06
0.035682 -1.338826e-06
0.035932 -1.370502e-06
0.036182 -1.403671e-06
0.036432 -1.438389e-06
0.036682 -1.474716e-06
0.036932 -1.512713e-06
0.037182 -1.552444e-06
0.037432 -1.593973e-06
0.037682 -1.637370e-06
0.037932 -1.682704e-06
0.038182 -1.730048e-06
0.038432 -1.779476e-06
0.038682 -1.831068e-06
0.038932 -1.884901e-06
0.039182 -1.941061e-06
0.039432 -1.999632e-06
0.039682 -2.060703e-06
0.039932 -2.124365e-06
0.040182 -2.190714e-06
0.040432 -2.259846e-06
0.040682 -2.331863e-06
0.040932 -2.406868e-06
0.041182 -2.484970e-06
0.041432 -2.566280e-06
0.041682 -2.650913e-06
0.041932 -2.738986e-06
0.042182 -2.830622e-06
0.042432 -2.925948e-06
0.042682 -3.025094e-06
0.042932 -3.128194e-06
0.043182 -3.235387e-06
0.043432 -3.346816e-06
0.043682 -3.462628e-06
0.043932 -3.582977e-06
0.044182 -3.708018e-06
0.044432 -3.837915e-06
0.044682 -3.972833e-06
0.044932 -4.112945e-06
0.045182 -4.258428e-06
0.045432 -4.409465e-06
0.045682 -4.566245e-06
0.045932 -4.728961e-06
0.046182 -4.897813e-06
0.046432 -5.073009e-06
0.046682 -5.254759e-06
0.046932 -5.443282e-06
0.047182 -5.638803e-06
0.047432 -5.841554e-06
0.047682 -6.051774e-06
0.047932 -6.269707e-06
0.048182 -6.495607e-06
0.048432 -6.729733e-06
0.048682 -6.972352e-06
0.048932 -7.223741e-06
0.049182 -7.484181e-06
0.049432 -7.753965e-06
0.049682 -8.033390e-06
0.049932 -8.322766e-06
0.050182 -8.622407e-06
0.050432 -8.932641e-06
0.050682 -9.253799e-06
0.050932 -9.586227e-06
0.051182 -9.930277e-06
0.051432 -1.028631e-05
0.051682 -1.065470e-05
0.051932 -1.103583e-05
0.052182 -1.143009e-05
0.052432 -1.183789e-05
0.052682 -1.225963e-05
0.052932 -1.269575e-05
0.053182 -1.314668e-05
0.053432 -1.361287e-05
0.053682 -1.409477e-05
0.053932 -1.459285e-05
0.054182 -1.510761e-05
0.054432 -1.563953e-05
0.054682 -1.618912e-05
0.054932 -1.675691e-05
0.055182 -1.734342e-05
0.055432 -1.794921e-05
0.055682 -1.857482e-05
0.055932 -1.922085e-05
0.056182 -1.988787e-05
0.056432 -2.057649e-05
0.056682 -2.128733e-05
0.056932 -2.202101e-05
0.057182 -2.277819e-05
0.057432 -2.355952e-05
0.057682 -2.436568e-05
0.057932 -2.519737e-05
0.058182 -2.605529e-05
0.058432 -2.694018e-05
0.058682 -2.785277e-05
0.058932 -2.879381e-05
0.059182 -2.976410e-05
0.059432 -3.076442e-05
0.059682 -3.179557e-05
0.059932 -3.285840e-05
0.060182 -3.395374e-05
0.060432 -3.508246e-05
0.060682 -3.624545e-05
0.060932 -3.744360e-05
0.061182 -3.867783e-05
0.061432 -3.994910e-05
0.061682 -4.125834e-05
0.061932 -4.260656e-05
0.062182 -4.399473e-05
0.062432 -4.542389e-05
0.062682 -4.689507e-05
0.062932 -4.840933e-05
0.063182 -4.996776e-05
0.063432 -5.157145e-05
0.063682 -5.322153e-05
0.063932 -5.491914e-05
0.064182 -5.666545e-05
0.064432 -5.846165e-05
0.064682 -6.030894e-05
0.064932 -6.220856e-05
0.065182 -6.416175e-05
0.065432 -6.616981e-05
0.065682 -6.823402e-05
0.065932 -7.035570e-05
0.066182 -7.253621e-05
0.066432 -7.477690e-05
0.066682 -7.707917e-05
0.066932 -7.944443e-05
0.067182 -8.187411e-05
0.067432 -8.436968e-05
0.067682 -8.693262e-05
0.067932 -8.956443e-05
0.068182 -9.226664e-05
0.068432 -9.504081e-05
0.068682 -9.788851e-05
0.068932 -1.008113e-04
0.069182 -1.038109e-04
0.069432 -1.068889e-04
0.069682 -1.100470e-04
0.069932 -1.132868e-04
0.070182 -1.166101e-04
0.070432 -1.200186e-04
0.070682 -1.235141e-04
0.070932 -1.270984e-04
0.071182 -1.307732e-04
0.071432 -1.345405e-04
0.071682 -1.384019e-04
0.071932 -1.423596e-04
0.072182 -1.464152e-04
0.072432 -1.505708e-04
0.072682 -1.548283e-04
0.072932 -1.591896e-04
0.073182 -1.636567e-04
0.073432 -1.682317e-04
0.073682 -1.729165e-04
0.073932 -1.777132e-04
0.074182 -1.826239e-04
0.074432 -1.876505e-04
0.074682 -1.927953e-04
0.074932 -1.980604e-04
0.075182 -2.034478e-04
0.075432 -2.089597e-04
0.075682 -2.145983e-04
0.075932 -2.203658e-04
0.076182 -2.262643e-04
0.076432 -2.322961e-04
0.076682 -2.384634e-04
0.076932 -2.447685e-04
0.077182 -2.512135e-04
0.077432 -2.578007e-04
0.077682 -2.645325e-04
0.077932 -2.714111e-04
0.078182 -2.784387e-04
0.078432 -2.856177e-04
0.078682 -2.929504e-04
0.078932 -3.004391e-04
0.079182 -3.080861e-04
0.079432 -3.158937e-04
0.079682 -3.238642e-04
0.079932 -3.320001e-04
0.080182 -3.403035e-04
0.080432 -3.487768e-04
0.080682 -3.574224e-04
0.080932 -3.662425e-04
0.081182 -3.752395e-04
0.081432 -3.844157e-04
0.081682 -3.937733e-04
0.081932 -4.033147e-04
0.082182 -4.130422e-04
0.082432 -4.229580e-04
0.082682 -4.330644e-04
0.082932 -4.433637e-04
0.083182 -4.538580e-04
0.083432 -4.645495e-04
0.083682 -4.754406e-04
0.083932 -4.865332e-04
0.084182 -4.978297e-04
0.084432 -5.093320e-04
0.084682 -5.210424e-04
0.084932 -5.329629e-04
0.085182 -5.450954e-04
0.085432 -5.574421e-04
0.085682 -5.700049e-04
0.085932 -5.827857e-04
0.086182 -5.957865e-04
0.086432 -6.090091e-04
0.086682 -6.224553e-04
0.086932 -6.361268e-04
0.087182 -6.500256e-04
0.087432 -6.641531e-04
0.087682 -6.785111e-04
0.087932 -6.931011e-04
0.088182 -7.079246e-04
0.088432 -7.229832e-04
0.088682 -7.382782e-04
0.088932 -7.538110e-04
0.089182 -7.695828e-04
0.089432 -7.855948e-04
0.089682 -8.018483e-04
0.089932 -8.183443e-04
0.090182 -8.350838e-04
0.090432 -8.520677e-04
0.090682 -8.692969e-04
0.090932 -8.867720e-04
0.091182 -9.044940e-04
0.091432 -9.224632e-04
0.091682 -9.406802e-04
0.091932 -9.591455e-04
0.092182 -9.778593e-04
0.092432 -9.968219e-04
0.092682 -1.016033e-03
0.092932 -1.035494e-03
0.093182 -1.055203e-03
0.093432 -1.075161e-03
0.093682 -1.095367e-03
0.093932 -1.115822e-03
0.094182 -1.136523e-03
0.094432 -1.157472e-03
0.094682 -1.178667e-03
0.094932 -1.200106e-03
0.095182 -1.221790e-03
0.095432 -1.243717e-03
0.095682 -1.265886e-03
0.095932 -1.288295e-03
0.096182 -1.310943e-03
0.096432 -1.333828e-03
0.096682 -1.356948e-03
0.096932 -1.380302e-03
0.097182 -1.403887e-03
0.097432 -1.427701e-03
0.097682 -1.451742e-03
0.097932 -1.476007e-03
0.098182 -1.500493e-03
0.098432 -1.525198e-03
0.098682 -1.550118e-03
0.098932 -1.575251e-03
0.099182 -1.600592e-03
0.099432 -1.626140e-03
0.099682 -1.651889e-03
0.099932 -1.677836e-03
0.100182 -1.703977e-03
0.100432 -1.730308e-03
0.100682 -1.756825e-03
0.100932 -1.783522e-03
0.101182 -1.810395e-03
0.101432 -1.837440e-03
0.101682 -1.864652e-03
0.101932 -1.892024e-03
0.102182 -1.919552e-03
0.102432 -1.947229e-03
0.102682 -1.975051e-03
0.102932 -2.003011e-03
0.103182 -2.031104e-03
0.103432 -2.059321e-03
0.103682 -2.087658e-03
0.103932 -2.116107e-03
0.104182 -2.144662e-03
0.104432 -2.173314e-03
0.104682 -2.202058e-03
0.104932 -2.230885e-03
0.105182 -2.259788e-03
0.105432 -2.288759e-03
0.105682 -2.317789e-03
0.105932 -2.346871e-03
0.106182 -2.375996e-03
0.106432 -2.405156e-03
0.106682 -2.434341e-03
0.106932 -2.463542e-03
0.107182 -2.492750e-03
0.107432 -2.521957e-03
0.107682 -2.551151e-03
0.107932 -2.580324e-03
0.108182 -2.609466e-03
0.108432 -2.638566e-03
0.108682 -2.667614e-03
0.108932 -2.696599e-03
0.109182 -2.725511e-03
0.109432 -2.754339e-03
0.109682 -2.783072e-03
0.109932 -2.811699e-03
0.110182 -2.840208e-03
0.110432 -2.868587e-03
0.110682 -2.896826e-03
0.110932 -2.924912e-03
0.111182 -2.952833e-03
0.111432 -2.980577e-03
0.111682 -3.008132e-03
0.111932 -3.035485e-03
0.112182 -3.062623e-03
0.112432 -3.089535e-03
0.112682 -3.116206e-03
0.112932 -3.142624e-03
0.113182 -3.168777e-03
0.113432 -3.194649e-03
0.113682 -3.220229e-03
0.113932 -3.245502e-03
0.114182 -3.270456e-03
0.114432 -3.295076e-03
0.114682 -3.319348e-03
0.114932 -3.343259e-03
0.115182 -3.366795e-03
0.115432 -3.389941e-03
0.115682 -3.412684e-03
0.115932 -3.435009e-03
0.116182 -3.456902e-03
0.116432 -3.478349e-03
0.116682 -3.499335e-03
0.116932 -3.519846e-03
0.117182 -3.539868e-03
0.117432 -3.559385e-03
0.117682 -3.578384e-03
0.117932 -3.596850e-03
0.118182 -3.614769e-03
0.118432 -3.632125e-03
0.118682 -3.648905e-03
0.118932 -3.665094e-03
0.119182 -3.680677e-03
0.119432 -3.695640e-03
0.119682 -3.709968e-03
0.119932 -3.723648e-03
0.120182 -3.736665e-03
0.120432 -3.749004e-03
0.120682 -3.760651e-03
0.120932 -3.771593e-03
0.121182 -3.781815e-03
0.121432 -3.791303e-03
0.121682 -3.800044e-03
0.121932 -3.808023e-03
0.122182 -3.815228e-03
0.122432 -3.821644e-03
0.122682 -3.827259e-03
0.122932 -3.832058e-03
0.123182 -3.836030e-03
0.123432 -3.839161e-03
0.123682 -3.841439e-03
0.123932 -3.842851e-03
0.124182 -3.843384e-03
0.124432 -3.843027e-03
0.124682 -3.841767e-03
0.124932 -3.839594e-03
0.125182 -3.836495e-03
0.125432 -3.832459e-03
0.125682 -3.827476e-03
0.125932 -3.821534e-03
0.126182 -3.814623e-03
0.126432 -3.806733e-03
0.126682 -3.797854e-03
0.126932 -3.787976e-03
0.127182 -3.777090e-03
0.127432 -3.765187e-03
0.127682 -3.752258e-03
0.127932 -3.738295e-03
0.128182 -3.723289e-03
0.128432 -3.707233e-03
0.128682 -3.690120e-03
0.128932 -3.671942e-03
0.129182 -3.652693e-03
0.129432 -3.632367e-03
0.129682 -3.610957e-03
0.129932 -3.588457e-03
0.130182 -3.564864e-03
0.130432 -3.540172e-03
0.130682 -3.514377e-03
0.130932 -3.487474e-03
0.131182 -3.459460e-03
0.131432 -3.430333e-03
0.131682 -3.400089e-03
0.131932 -3.368726e-03
0.132182 -3.336243e-03
0.132432 -3.302638e-03
0.132682 -3.267910e-03
0.132932 -3.232059e-03
0.133182 -3.195085e-03
0.133432 -3.156988e-03
0.133682 -3.117769e-03
0.133932 -3.077430e-03
0.134182 -3.035973e-03
0.134432 -2.993400e-03
0.134682 -2.949714e-03
0.134932 -2.904919e-03
0.135182 -2.859018e-03
0.135432 -2.812015e-03
0.135682 -2.763917e-03
0.135932 -2.714727e-03
0.136182 -2.664453e-03
0.136432 -2.613100e-03
0.136682 -2.560676e-03
0.136932 -2.507187e-03
0.137182 -2.452642e-03
0.137432 -2.397050e-03
0.137682 -2.340418e-03
0.137932 -2.282757e-03
0.138182 -2.224077e-03
0.138432 -2.164389e-03
0.138682 -2.103702e-03
0.138932 -2.042029e-03
0.139182 -1.979382e-03
0.139432 -1.915773e-03
0.139682 -1.851216e-03
0.139932 -1.785723e-03
0.140182 -1.719309e-03
0.140432 -1.651989e-03
0.140682 -1.583777e-03
0.140932 -1.514688e-03
0.141182 -1.444740e-03
0.141432 -1.373948e-03
0.141682 -1.302329e-03
0.141932 -1.229900e-03
0.142182 -1.156680e-03
0.142432 -1.082686e-03
0.142682 -1.007938e-03
0.142932 -9.324546e-04
0.143182 -8.562552e-04
0.143432 -7.793599e-04
0.143682 -7.017893e-04
0.143932 -6.235642e-04
0.144182 -5.447059e-04
0.144432 -4.652361e-04
0.144682 -3.851767e-04
0.144932 -3.045503e-04
0.145182 -2.233796e-04
0.145432 -1.416878e-04
0.145682 -5.949845e-05
0.145932 2.316469e-05
0.146182 1.062774e-04
0.146432 1.898152e-04
0.146682 2.737532e-04
0.146932 3.580665e-04
0.147182 4.427295e-04
0.147432 5.277166e-04
0.147682 6.130020e-04
0.147932 6.985593e-04
0.148182 7.843623e-04
0.148432 8.703842e-04
0.148682 9.565982e-04
0.148932 1.042977e-03
0.149182 1.129494e-03
0.149432 1.216122e-03
0.149682 1.302832e-03
0.149932 1.389597e-03
0.150182 1.476389e-03
0.150432 1.563181e-03
0.150682 1.649943e-03
0.150932 1.736649e-03
0.151182 1.823269e-03
0.151432 1.909776e-03
0.151682 1.996140e-03
0.151932 2.082334e-03
0.152182 2.168329e-03
0.152432 2.254097e-03
0.152682 2.339609e-03
0.152932 2.424836e-03
0.153182 2.509751e-03
0.153432 2.594324e-03
0.153682 2.678529e-03
0.153932 2.762336e-03
0.154182 2.845717e-03
0.154432 2.928644e-03
0.154682 3.011090e-03
0.154932 3.093026e-03
0.155182 3.174426e-03
0.155432 3.255261e-03
0.155682 3.335504e-03
0.155932 3.415129e-03
0.156182 3.494108e-03
0.156432 3.572415e-03
0.156682 3.650023e-03
0.156932 3.726907e-03
0.157182 3.803040e-03
0.157432 3.878396e-03
0.157682 3.952951e-03
0.157932 4.026679e-03
0.158182 4.099556e-03
0.158432 4.171558e-03
0.158682 4.242659e-03
0.158932 4.312837e-03
0.159182 4.382068e-03
0.159432 4.450330e-03
0.159682 4.517599e-03
0.159932 4.583854e-03
0.160182 4.649072e-03
0.160432 4.713233e-03
0.160682 4.776316e-03
0.160932 4.838300e-03
0.161182 4.899165e-03
0.161432 4.958892e-03
0.161682 5.017462e-03
0.161932 5.074856e-03
0.162182 5.131056e-03
0.162432 5.186044e-03
0.162682 5.239804e-03
0.162932 5.292319e-03
0.163182 5.343573e-03
0.163432 5.393550e-03
0.163682 5.442236e-03
0.163932 5.489616e-03
0.164182 5.535677e-03
0.164432 5.580405e-03
0.164682 5.623788e-03
0.164932 5.665812e-03
0.165182 5.706468e-03
0.165432 5.745744e-03
0.165682 5.783630e-03
0.165932 5.820115e-03
0.166182 5.855192e-03
0.166432 5.888850e-03
0.166682 5.921083e-03
0.166932 5.951883e-03
0.167182 5.981243e-03
0.167432 6.009157e-03
0.167682 6.035620e-03
0.167932 6.060627e-03
0.168182 6.084173e-03
0.168432 6.106255e-03
0.168682 6.126870e-03
0.168932 6.146015e-03
0.169182 6.163689e-03
0.169432 6.179891e-03
0.169682 6.194619e-03
0.169932 6.207874e-03
0.170182 6.219657e-03
0.170432 6.229968e-03
0.170682 6.238811e-03
0.170932 6.246186e-03
0.171182 6.252098e-03
0.171432 6.256549e-03
0.171682 6.259545e-03
0.171932 6.261089e-03
0.172182 6.261188e-03
0.172432 6.259847e-03
0.172682 6.257073e-03
0.172932 6.252874e-03
0.173182 6.247256e-03
0.173432 6.240228e-03
0.173682 6.231798e-03
0.173932 6.221977e-03
0.174182 6.210773e-03
0.174432 6.198198e-03
0.174682 6.184262e-03
0.174932 6.168977e-03
0.175182 6.152354e-03
0.175432 6.134406e-03
0.175682 6.115146e-03
0.175932 6.094587e-03
0.176182 6.072743e-03
0.176432 6.049628e-03
0.176682 6.025256e-03
0.176932 5.999644e-03
0.177182 5.972806e-03
0.177432 5.944759e-03
0.177682 5.915519e-03
0.177932 5.885102e-03
0.178182 5.853527e-03
0.178432 5.820809e-03
0.178682 5.786968e-03
0.178932 5.752022e-03
0.179182 5.715988e-03
0.179432 5.678886e-03
0.179682 5.640736e-03
0.179932 5.601556e-03
0.180182 5.561367e-03
0.180432 5.520188e-03
0.180682 5.478040e-03
0.180932 5.434943e-03
0.181182 5.390919e-03
0.181432 5.345988e-03
0.181682 5.300171e-03
0.181932 5.253491e-03
0.182182 5.205968e-03
0.182432 5.157625e-03