-0.138818 1.409380e-04
-0.138568 1.432445e-04
-0.138318 1.454763e-04
-0.138068 1.476325e-04
-0.137818 1.497122e-04
-0.137568 1.517144e-04
-0.137318 1.536383e-04
-0.137068 1.554831e-04
-0.136818 1.572479e-04
-0.136568 1.589321e-04
-0.136318 1.605350e-04
-0.136068 1.620558e-04
-0.135818 1.634941e-04
-0.135568 1.648492e-04
-0.135318 1.661205e-04
-0.135068 1.673077e-04
-0.134818 1.684102e-04
-0.134568 1.694276e-04
-0.134318 1.703597e-04
-0.134068 1.712061e-04
-0.133818 1.719665e-04
-0.133568 1.726407e-04
-0.133318 1.732285e-04
-0.133068 1.737298e-04
-0.132818 1.741445e-04
-0.132568 1.744724e-04
-0.132318 1.747137e-04
-0.132068 1.748684e-04
-0.131818 1.749365e-04
-0.131568 1.749181e-04
-0.131318 1.748134e-04
-0.131068 1.746226e-04
-0.130818 1.743460e-04
-0.130568 1.739839e-04
-0.130318 1.735365e-04
-0.130068 1.730043e-04
-0.129818 1.723876e-04
-0.129568 1.716870e-04
-0.129318 1.709028e-04
-0.129068 1.700358e-04
-0.128818 1.690864e-04
-0.128568 1.680552e-04
-0.128318 1.669430e-04
-0.128068 1.657503e-04
-0.127818 1.644780e-04
-0.127568 1.631269e-04
-0.127318 1.616976e-04
-0.127068 1.601912e-04
-0.126818 1.586084e-04
-0.126568 1.569502e-04
-0.126318 1.552175e-04
-0.126068 1.534114e-04
-0.125818 1.515328e-04
-0.125568 1.495829e-04
-0.125318 1.475627e-04
-0.125068 1.454734e-04
-0.124818 1.433161e-04
-0.124568 1.410920e-04
-0.124318 1.388023e-04
-0.124068 1.364483e-04
-0.123818 1.340313e-04
-0.123568 1.315526e-04
-0.123318 1.290135e-04
-0.123068 1.264153e-04
-0.122818 1.237596e-04
-0.122568 1.210477e-04
-0.122318 1.182810e-04
-0.122068 1.154611e-04
-0.121818 1.125894e-04
-0.121568 1.096674e-04
-0.121318 1.066967e-04
-0.121068 1.036789e-04
-0.120818 1.006155e-04
-0.120568 9.750809e-05
-0.120318 9.435834e-05
-0.120068 9.116788e-05
-0.119818 8.793836e-05
-0.119568 8.467145e-05
-0.119318 8.136884e-05
-0.119068 7.803224e-05
-0.118818 7.466335e-05
-0.118568 7.126392e-05
-0.118318 6.783567e-05
-0.118068 6.438036e-05
-0.117818 6.089975e-05
-0.117568 5.739561e-05
-0.117318 5.386973e-05
-0.117068 5.032388e-05
-0.116818 4.675987e-05
-0.116568 4.317949e-05
-0.116318 3.958455e-05
-0.116068 3.597685e-05
-0.115818 3.235820e-05
-0.115568 2.873042e-05
-0.115318 2.509532e-05
-0.115068 2.145472e-05
-0.114818 1.781042e-05
-0.114568 1.416425e-05
-0.114318 1.051800e-05
-0.114068 6.873489e-06
-0.113818 3.232514e-06
-0.113568 -4.031285e-07
-0.113318 -4.031647e-06
-0.113068 -7.651259e-06
-0.112818 -1.126019e-05
-0.112568 -1.485667e-05
-0.112318 -1.843894e-05
-0.112068 -2.200526e-05
-0.111818 -2.555388e-05
-0.111568 -2.908310e-05
-0.111318 -3.259119e-05
-0.111068 -3.607645e-05
-0.110818 -3.953722e-05
-0.110568 -4.297181e-05
-0.110318 -4.637858e-05
-0.110068 -4.975589e-05
-0.109818 -5.310213e-05
-0.109568 -5.641569e-05
-0.109318 -5.969501e-05
-0.109068 -6.293852e-05
-0.108818 -6.614469e-05
-0.108568 -6.931199e-05
-0.108318 -7.243894e-05
-0.108068 -7.552405e-05
-0.107818 -7.856590e-05
-0.107568 -8.156304e-05
-0.107318 -8.451409e-05
-0.107068 -8.741766e-05
-0.106818 -9.027242e-05
-0.106568 -9.307705e-05
-0.106318 -9.583024e-05
-0.106068 -9.853074e-05
-0.105818 -1.011773e-04
-0.105568 -1.037687e-04
-0.105318 -1.063039e-04
-0.105068 -1.087815e-04
-0.104818 -1.112006e-04
-0.104568 -1.135600e-04
-0.104318 -1.158587e-04
-0.104068 -1.180957e-04
-0.103818 -1.202699e-04
-0.103568 -1.223804e-04
-0.103318 -1.244264e-04
-0.103068 -1.264069e-04
-0.102818 -1.283210e-04
-0.102568 -1.301679e-04
-0.102318 -1.319469e-04
-0.102068 -1.336572e-04
-0.101818 -1.352981e-04
-0.101568 -1.368689e-04
-0.101318 -1.383689e-04
-0.101068 -1.397976e-04
-0.100818 -1.411544e-04
-0.100568 -1.424388e-04
-0.100318 -1.436502e-04
-0.100068 -1.447882e-04
-0.099818 -1.458524e-04
-0.099568 -1.468424e-04
-0.099318 -1.477579e-04
-0.099068 -1.485985e-04
-0.098818 -1.493639e-04
-0.098568 -1.500541e-04
-0.098318 -1.506686e-04
-0.098068 -1.512075e-04
-0.097818 -1.516705e-04
-0.097568 -1.520576e-04
-0.097318 -1.523687e-04
-0.097068 -1.526039e-04
-0.096818 -1.527632e-04
-0.096568 -1.528466e-04
-0.096318 -1.528542e-04
-0.096068 -1.527862e-04
-0.095818 -1.526428e-04
-0.095568 -1.524242e-04
-0.095318 -1.521306e-04
-0.095068 -1.517624e-04
-0.094818 -1.513198e-04
-0.094568 -1.508033e-04
-0.094318 -1.502131e-04
-0.094068 -1.495499e-04
-0.093818 -1.488140e-04
-0.093568 -1.480059e-04
-0.093318 -1.471262e-04
-0.093068 -1.461754e-04
-0.092818 -1.451543e-04
-0.092568 -1.440633e-04
-0.092318 -1.429033e-04
-0.092068 -1.416748e-04
-0.091818 -1.403787e-04
-0.091568 -1.390157e-04
-0.091318 -1.375866e-04
-0.091068 -1.360923e-04
-0.090818 -1.345336e-04
-0.090568 -1.329114e-04
-0.090318 -1.312267e-04
-0.090068 -1.294804e-04
-0.089818 -1.276736e-04
-0.089568 -1.258071e-04
-0.089318 -1.238821e-04
-0.089068 -1.218996e-04
-0.088818 -1.198607e-04
-0.088568 -1.177665e-04
-0.088318 -1.156183e-04
-0.088068 -1.134171e-04
-0.087818 -1.111641e-04
-0.087568 -1.088606e-04
-0.087318 -1.065079e-04
-0.087068 -1.041071e-04
-0.086818 -1.016595e-04
-0.086568 -9.916653e-05
-0.086318 -9.662942e-05
-0.086068 -9.404955e-05
-0.085818 -9.142827e-05
-0.085568 -8.876695e-05
-0.085318 -8.606701e-05
-0.085068 -8.332985e-05
-0.084818 -8.055690e-05
-0.084568 -7.774961e-05
-0.084318 -7.490943e-05
-0.084068 -7.203784e-05
-0.083818 -6.913632e-05
-0.083568 -6.620637e-05
-0.083318 -6.324950e-05
-0.083068 -6.026723e-05
-0.082818 -5.726107e-05
-0.082568 -5.423258e-05
-0.082318 -5.118330e-05
-0.082068 -4.811477e-05
-0.081818 -4.502855e-05
-0.081568 -4.192622e-05
-0.081318 -3.880934e-05
-0.081068 -3.567948e-05
-0.080818 -3.253822e-05
-0.080568 -2.938715e-05
-0.080318 -2.622783e-05
-0.080068 -2.306186e-05
-0.079818 -1.989082e-05
-0.079568 -1.671628e-05
-0.079318 -1.353984e-05
-0.079068 -1.036306e-05
-0.078818 -7.187522e-06
-0.078568 -4.014803e-06
-0.078318 -8.464660e-07
-0.078068 2.315926e-06
-0.077818 5.470815e-06
-0.077568 8.616654e-06
-0.077318 1.175190e-05
-0.077068 1.487502e-05
-0.076818 1.798449e-05
-0.076568 2.107878e-05
-0.076318 2.415641e-05
-0.076068 2.721587e-05
-0.075818 3.025569e-05
-0.075568 3.327439e-05
-0.075318 3.627052e-05
-0.075068 3.924263e-05
-0.074818 4.218931e-05
-0.074568 4.510913e-05
-0.074318 4.800070e-05
-0.074068 5.086265e-05
-0.073818 5.369361e-05
-0.073568 5.649224e-05
-0.073318 5.925721e-05
-0.073068 6.198722e-05
-0.072818 6.468098e-05
-0.072568 6.733723e-05
-0.072318 6.995471e-05
-0.072068 7.253222e-05
-0.071818 7.506854e-05
-0.071568 7.756251e-05
-0.071318 8.001296e-05
-0.071068 8.241876e-05
-0.070818 8.477881e-05
-0.070568 8.709203e-05
-0.070318 8.935735e-05
-0.070068 9.157376e-05
-0.069818 9.374024e-05
-0.069568 9.585581e-05
-0.069318 9.791953e-05
-0.069068 9.993047e-05
-0.068818 1.018877e-04
-0.068568 1.037905e-04
-0.068318 1.056378e-04
-0.068068 1.074290e-04
-0.067818 1.091631e-04
-0.067568 1.108396e-04
-0.067318 1.124576e-04
-0.067068 1.140165e-04
-0.066818 1.155156e-04
-0.066568 1.169543e-04
-0.066318 1.183320e-04
-0.066068 1.196481e-04
-0.065818 1.209021e-04
-0.065568 1.220934e-04
-0.065318 1.232217e-04
-0.065068 1.242864e-04
-0.064818 1.252872e-04
-0.064568 1.262237e-04
-0.064318 1.270956e-04
-0.064068 1.279025e-04
-0.063818 1.286441e-04
-0.063568 1.293203e-04
-0.063318 1.299308e-04
-0.063068 1.304754e-04
-0.062818 1.309541e-04
-0.062568 1.313666e-04
-0.062318 1.317129e-04
-0.062068 1.319929e-04
-0.061818 1.322067e-04
-0.061568 1.323543e-04
-0.061318 1.324356e-04
-0.061068 1.324509e-04
-0.060818 1.324002e-04
-0.060568 1.322837e-04
-0.060318 1.321015e-04
-0.060068 1.318539e-04
-0.059818 1.315411e-04
-0.059568 1.311634e-04
-0.059318 1.307211e-04
-0.059068 1.302146e-04
-0.058818 1.296441e-04
-0.058568 1.290102e-04
-0.058318 1.283133e-04
-0.058068 1.275538e-04
-0.057818 1.267322e-04
-0.057568 1.258490e-04
-0.057318 1.249048e-04
-0.057068 1.239003e-04
-0.056818 1.228359e-04
-0.056568 1.217123e-04
-0.056318 1.205303e-04
-0.056068 1.192904e-04
-0.055818 1.179935e-04
-0.055568 1.166402e-04
-0.055318 1.152314e-04
-0.055068 1.137679e-04
-0.054818 1.122504e-04
-0.054568 1.106799e-04
-0.054318 1.090572e-04
-0.054068 1.073832e-04
-0.053818 1.056589e-04
-0.053568 1.038851e-04
-0.053318 1.020629e-04
-0.053068 1.001933e-04
-0.052818 9.827729e-05
-0.052568 9.631587e-05
-0.052318 9.431012e-05
-0.052068 9.226113e-05
-0.051818 9.016999e-05
-0.051568 8.803781e-05
-0.051318 8.586574e-05
-0.051068 8.365492e-05
-0.050818 8.140651e-05
-0.050568 7.912172e-05
-0.050318 7.680173e-05
-0.050068 7.444777e-05
-0.049818 7.206107e-05
-0.049568 6.964286e-05
-0.049318 6.719442e-05
-0.049068 6.471700e-05
-0.048818 6.221190e-05
-0.048568 5.968041e-05
-0.048318 5.712383e-05
-0.048068 5.454347e-05
-0.047818 5.194067e-05
-0.047568 4.931676e-05
-0.047318 4.667307e-05
-0.047068 4.401096e-05
-0.046818 4.133178e-05
-0.046568 3.863689e-05
-0.046318 3.592766e-05
-0.046068 3.320546e-05
-0.045818 3.047167e-05
-0.045568 2.772765e-05
-0.045318 2.497480e-05
-0.045068 2.221450e-05
-0.044818 1.944813e-05
-0.044568 1.667707e-05
-0.044318 1.390271e-05
-0.044068 1.112644e-05
-0.043818 8.349628e-06
-0.043568 5.573663e-06
-0.043318 2.799918e-06
-0.043068 2.976813e-08
-0.042818 -2.735418e-06
-0.042568 -5.494277e-06
-0.042318 -8.245449e-06
-0.042068 -1.098758e-05
-0.041818 -1.371933e-05
-0.041568 -1.643936e-05
-0.041318 -1.914634e-05
-0.041068 -2.183894e-05
-0.040818 -2.451586e-05
-0.040568 -2.717579e-05
-0.040318 -2.981744e-05
-0.040068 -3.243954e-05
-0.039818 -3.504082e-05
-0.039568 -3.762001e-05
-0.039318 -4.017589e-05
-0.039068 -4.270721e-05
-0.038818 -4.521278e-05
-0.038568 -4.769138e-05
-0.038318 -5.014183e-05
-0.038068 -5.256297e-05
-0.037818 -5.495365e-05
-0.037568 -5.731273e-05
-0.037318 -5.963909e-05
-0.037068 -6.193164e-05
-0.036818 -6.418930e-05
-0.036568 -6.641100e-05
-0.036318 -6.859571e-05
-0.036068 -7.074240e-05
-0.035818 -7.285007e-05
-0.035568 -7.491775e-05
-0.035318 -7.694447e-05
-0.035068 -7.892930e-05
-0.034818 -8.087133e-05
-0.034568 -8.276966e-05
-0.034318 -8.462343e-05
-0.034068 -8.643179e-05
-0.033818 -8.819392e-05
-0.033568 -8.990903e-05
-0.033318 -9.157634e-05
-0.033068 -9.319510e-05
-0.032818 -9.476460e-05
-0.032568 -9.628414e-05
-0.032318 -9.775304e-05
-0.032068 -9.917067e-05
-0.031818 -1.005364e-04
-0.031568 -1.018497e-04
-0.031318 -1.031098e-04
-0.031068 -1.043165e-04
-0.030818 -1.054690e-04
-0.030568 -1.065669e-04
-0.030318 -1.076098e-04
-0.030068 -1.085972e-04
-0.029818 -1.095288e-04
-0.029568 -1.104042e-04
-0.029318 -1.112230e-04
-0.029068 -1.119849e-04
-0.028818 -1.126896e-04
-0.028568 -1.133369e-04
-0.028318 -1.139265e-04
-0.028068 -1.144583e-04
-0.027818 -1.149321e-04
-0.027568 -1.153477e-04
-0.027318 -1.157051e-04
-0.027068 -1.160041e-04
-0.026818 -1.162446e-04
-0.026568 -1.164268e-04
-0.026318 -1.165505e-04
-0.026068 -1.166158e-04
-0.025818 -1.166227e-04
-0.025568 -1.165714e-04
-0.025318 -1.164620e-04
-0.025068 -1.162946e-04
-0.024818 -1.160694e-04
-0.024568 -1.157866e-04
-0.024318 -1.154464e-04
-0.024068 -1.150491e-04
-0.023818 -1.145950e-04
-0.023568 -1.140843e-04
-0.023318 -1.135175e-04
-0.023068 -1.128949e-04
-0.022818 -1.122169e-04
-0.022568 -1.114839e-04
-0.022318 -1.106963e-04
-0.022068 -1.098547e-04
-0.021818 -1.089595e-04
-0.021568 -1.080114e-04
-0.021318 -1.070107e-04
-0.021068 -1.059581e-04
-0.020818 -1.048542e-04
-0.020568 -1.036997e-04
-0.020318 -1.024951e-04
-0.020068 -1.012411e-04
-0.019818 -9.993855e-05
-0.019568 -9.858803e-05
-0.019318 -9.719030e-05
-0.019068 -9.574614e-05
-0.018818 -9.425634e-05
-0.018568 -9.272170e-05
-0.018318 -9.114305e-05
-0.018068 -8.952123e-05
-0.017818 -8.785712e-05
-0.017568 -8.615160e-05
-0.017318 -8.440557e-05
-0.017068 -8.261997e-05
-0.016818 -8.079574e-05
-0.016568 -7.893383e-05
-0.016318 -7.703522e-05
-0.016068 -7.510091e-05
-0.015818 -7.313191e-05
-0.015568 -7.112924e-05
-0.015318 -6.909394e-05
-0.015068 -6.702708e-05
-0.014818 -6.492970e-05
-0.014568 -6.280291e-05
-0.014318 -6.064779e-05
-0.014068 -5.846545e-05
-0.013818 -5.625701e-05
-0.013568 -5.402360e-05
-0.013318 -5.176637e-05
-0.013068 -4.948645e-05
-0.012818 -4.718501e-05
-0.012568 -4.486323e-05
-0.012318 -4.252227e-05
-0.012068 -4.016332e-05
-0.011818 -3.778758e-05
-0.011568 -3.539623e-05
-0.011318 -3.299050e-05
-0.011068 -3.057157e-05
-0.010818 -2.814068e-05
-0.010568 -2.569903e-05
-0.010318 -2.324785e-05
-0.010068 -2.078837e-05
-0.009818 -1.832180e-05
-0.009568 -1.584938e-05
-0.009318 -1.337234e-05
-0.009068 -1.089191e-05
-0.008818 -8.409312e-06
-0.008568 -5.925781e-06
-0.008318 -3.442543e-06
-0.008068 -9.608238e-07
-0.007818 1.518153e-06
-0.007568 3.993167e-06
-0.007318 6.463003e-06
-0.007068 8.926448e-06
-0.006818 1.138230e-05
-0.006568 1.382934e-05
-0.006318 1.626640e-05
-0.006068 1.869227e-05
-0.005818 2.110577e-05
-0.005568 2.350574e-05
-0.005318 2.589099e-05
-0.005068 2.826039e-05
-0.004818 3.061278e-05
-0.004568 3.294702e-05
-0.004318 3.526198e-05
-0.004068 3.755656e-05
-0.003818 3.982964e-05
-0.003568 4.208013e-05
-0.003318 4.430696e-05
-0.003068 4.650906e-05
-0.002818 4.868537e-05
-0.002568 5.083485e-05
-0.002318 5.295649e-05
-0.002068 5.504927e-05
-0.001818 5.711220e-05
-0.001568 5.914430e-05
-0.001318 6.114460e-05
-0.001068 6.311218e-05
-0.000818 6.504609e-05
-0.000568 6.694543e-05
-0.000318 6.880931e-05
-0.000068 7.063685e-05
0.000182 7.242721e-05
0.000432 7.417954e-05
0.000682 7.589303e-05
0.000932 7.756690e-05
0.001182 7.920036e-05
0.001432 8.079266e-05
0.001682 8.234307e-05
0.001932 8.385088e-05
0.002182 8.531540e-05
0.002432 8.673596e-05
0.002682 8.811192e-05
0.002932 8.944266e-05
0.003182 9.072758e-05
0.003432 9.196610e-05
0.003682 9.315768e-05
0.003932 9.430177e-05
0.004182 9.539789e-05
0.004432 9.644554e-05
0.004682 9.744428e-05
0.004932 9.839366e-05
0.005182 9.929328e-05
0.005432 1.001428e-04
0.005682 1.009418e-04
0.005932 1.016899e-04
0.006182 1.023869e-04
0.006432 1.030325e-04
0.006682 1.036265e-04
0.006932 1.041685e-04
0.007182 1.046584e-04
0.007432 1.050961e-04
0.007682 1.054812e-04
0.007932 1.058139e-04
0.008182 1.060938e-04
0.008432 1.063210e-04
0.008682 1.064954e-04
0.008932 1.066169e-04
0.009182 1.066857e-04
0.009432 1.067016e-04
0.009682 1.066648e-04
0.009932 1.065754e-04
0.010182 1.064334e-04
0.010432 1.062389e-04
0.010682 1.059922e-04
0.010932 1.056933e-04
0.011182 1.053426e-04
0.011432 1.049402e-04
0.011682 1.044864e-04
0.011932 1.039814e-04
0.012182 1.034257e-04
0.012432 1.028194e-04
0.012682 1.021630e-04
0.012932 1.014568e-04
0.013182 1.007012e-04
0.013432 9.989671e-05
0.013682 9.904370e-05
0.013932 9.814266e-05
0.014182 9.719408e-05
0.014432 9.619848e-05
0.014682 9.515639e-05
0.014932 9.406838e-05
0.015182 9.293501e-05
0.015432 9.175691e-05
0.015682 9.053468e-05
0.015932 8.926898e-05
0.016182 8.796046e-05
0.016432 8.660981e-05
0.016682 8.521774e-05
0.016932 8.378496e-05
0.017182 8.231223e-05
0.017432 8.080029e-05
0.017682 7.924993e-05
0.017932 7.766195e-05
0.018182 7.603716e-05
0.018432 7.437638e-05
0.018682 7.268047e-05
0.018932 7.095028e-05
0.019182 6.918671e-05
0.019432 6.739063e-05
0.019682 6.556296e-05
0.019932 6.370462e-05
0.020182 6.181655e-05
0.020432 5.989970e-05
0.020682 5.795502e-05
0.020932 5.598350e-05
0.021182 5.398613e-05
0.021432 5.196389e-05
0.021682 4.991780e-05
0.021932 4.784888e-05
0.022182 4.575815e-05
0.022432 4.364666e-05
0.022682 4.151546e-05
0.022932 3.936559e-05
0.023182 3.719813e-05
0.023432 3.501414e-05
0.023682 3.281471e-05
0.023932 3.060091e-05
0.024182 2.837383e-05
0.024432 2.613458e-05
0.024682 2.388425e-05
0.024932 2.162394e-05
0.025182 1.935477e-05
0.025432 1.707783e-05
0.025682 1.479426e-05
0.025932 1.250515e-05
0.026182 1.021163e-05
0.026432 7.914817e-06
0.026682 5.615824e-06
0.026932 3.315770e-06
0.027182 1.015773e-06
0.027432 -1.283052e-06
0.027682 -3.579591e-06
0.027932 -5.872733e-06
0.028182 -8.161369e-06
0.028432 -1.044439e-05
0.028682 -1.272071e-05
0.028932 -1.498921e-05
0.029182 -1.724881e-05
0.029432 -1.949842e-05
0.029682 -2.173696e-05
0.029932 -2.396336e-05
0.030182 -2.617655e-05
0.030432 -2.837546e-05
0.030682 -3.055906e-05
0.030932 -3.272629e-05
0.031182 -3.487612e-05
0.031432 -3.700753e-05
0.031682 -3.911949e-05
0.031932 -4.121102e-05
0.032182 -4.328110e-05
0.032432 -4.532876e-05
0.032682 -4.735304e-05
0.032932 -4.935297e-05
0.033182 -5.132760e-05
0.033432 -5.327600e-05
0.033682 -5.519726e-05
0.033932 -5.709047e-05
0.034182 -5.895474e-05
0.034432 -6.078919e-05
0.034682 -6.259296e-05
0.034932 -6.436522e-05
0.035182 -6.610512e-05
0.035432 -6.781185e-05
0.035682 -6.948463e-05
0.035932 -7.112267e-05
0.036182 -7.272521e-05
0.036432 -7.429151e-05
0.036682 -7.582083e-05
0.036932 -7.731249e-05
0.037182 -7.876577e-05
0.037432 -8.018003e-05
0.037682 -8.155460e-05
0.037932 -8.288886e-05
0.038182 -8.418220e-05
0.038432 -8.543403e-05
0.038682 -8.664377e-05
0.038932 -8.781088e-05
0.039182 -8.893483e-05
0.039432 -9.001511e-05
0.039682 -9.105125e-05
0.039932 -9.204277e-05
0.040182 -9.298923e-05
0.040432 -9.389021e-05
0.040682 -9.474532e-05
0.040932 -9.555418e-05
0.041182 -9.631643e-05
0.041432 -9.703175e-05
0.041682 -9.769983e-05
0.041932 -9.832039e-05
0.042182 -9.889315e-05
0.042432 -9.941789e-05
0.042682 -9.989438e-05
0.042932 -1.003224e-04
0.043182 -1.007019e-04
0.043432 -1.010326e-04
0.043682 -1.013144e-04
0.043932 -1.015473e-04
0.044182 -1.017311e-04
0.044432 -1.018658e-04
0.044682 -1.019514e-04
0.044932 -1.019878e-04
0.045182 -1.019752e-04
0.045432 -1.019134e-04
0.045682 -1.018027e-04
0.045932 -1.016430e-04
0.046182 -1.014346e-04
0.046432 -1.011774e-04
0.046682 -1.008718e-04
0.046932 -1.005178e-04
0.047182 -1.001156e-04
0.047432 -9.966560e-05
0.047682 -9.916791e-05
0.047932 -9.862284e-05
0.048182 -9.803067e-05
0.048432 -9.739173e-05
0.048682 -9.670635e-05
0.048932 -9.597490e-05
0.049182 -9.519774e-05
0.049432 -9.437529e-05
0.049682 -9.350797e-05
0.049932 -9.259622e-05
0.050182 -9.164050e-05
0.050432 -9.064132e-05
0.050682 -8.959916e-05
0.050932 -8.851455e-05
0.051182 -8.738805e-05
0.051432 -8.622021e-05
0.051682 -8.501162e-05
0.051932 -8.376289e-05
0.052182 -8.247463e-05
0.052432 -8.114748e-05
0.052682 -7.978210e-05
0.052932 -7.837917e-05
0.053182 -7.693937e-05
0.053432 -7.546342e-05
0.053682 -7.395205e-05
0.053932 -7.240598e-05
0.054182 -7.082599e-05
0.054432 -6.921285e-05
0.054682 -6.756733e-05
0.054932 -6.589026e-05
0.055182 -6.418243e-05
0.055432 -6.244468e-05
0.055682 -6.067787e-05
0.055932 -5.888283e-05
0.056182 -5.706045e-05
0.056432 -5.521160e-05
0.056682 -5.333719e-05
0.056932 -5.143811e-05
0.057182 -4.951527e-05
0.057432 -4.756962e-05
0.057682 -4.560207e-05
0.057932 -4.361359e-05
0.058182 -4.160512e-05
0.058432 -3.957763e-05
0.058682 -3.753208e-05
0.058932 -3.546947e-05
0.059182 -3.339077e-05
0.059432 -3.129698e-05
0.059682 -2.918910e-05
0.059932 -2.706814e-05
0.060182 -2.493510e-05
0.060432 -2.279100e-05
0.060682 -2.063687e-05
0.060932 -1.847372e-05
0.061182 -1.630258e-05
0.061432 -1.412449e-05
0.061682 -1.194048e-05
0.061932 -9.751578e-06
0.062182 -7.558825e-06
0.062432 -5.363258e-06
0.062682 -3.165915e-06
0.062932 -9.678335e-07
0.063182 1.229950e-06
0.063432 3.426398e-06
0.063682 5.620476e-06
0.063932 7.811151e-06
0.064182 9.997393e-06
0.064432 1.217817e-05
0.064682 1.435247e-05
0.064932 1.651926e-05
0.065182 1.867753e-05
0.065432 2.082627e-05
0.065682 2.296447e-05
0.065932 2.509112e-05
0.066182 2.720525e-05
0.066432 2.930586e-05
0.066682 3.139196e-05
0.066932 3.346260e-05
0.067182 3.551679e-05
0.067432 3.755360e-05
0.067682 3.957206e-05
0.067932 4.157124e-05
0.068182 4.355022e-05
0.068432 4.550807e-05
0.068682 4.744389e-05
0.068932 4.935678e-05
0.069182 5.124586e-05
0.069432 5.311026e-05
0.069682 5.494910e-05
0.069932 5.676155e-05
0.070182 5.854677e-05
0.070432 6.030394e-05
0.070682 6.203224e-05
0.070932 6.373090e-05
0.071182 6.539912e-05
0.071432 6.703614e-05
0.071682 6.864121e-05
0.071932 7.021360e-05
0.072182 7.175259e-05
0.072432 7.325748e-05
0.072682 7.472758e-05
0.072932 7.616222e-05
0.073182 7.756076e-05
0.073432 7.892255e-05
0.073682 8.024698e-05
0.073932 8.153346e-05
0.074182 8.278139e-05
0.074432 8.399023e-05
0.074682 8.515941e-05
0.074932 8.628843e-05
0.075182 8.737677e-05
0.075432 8.842396e-05
0.075682 8.942951e-05
0.075932 9.039298e-05
0.076182 9.131395e-05
0.076432 9.219202e-05
0.076682 9.302678e-05
0.076932 9.381788e-05
0.077182 9.456497e-05
0.077432 9.526773e-05
0.077682 9.592585e-05
0.077932 9.653905e-05
0.078182 9.710706e-05
0.078432 9.762965e-05
0.078682 9.810659e-05
0.078932 9.853769e-05
0.079182 9.892278e-05
0.079432 9.926168e-05
0.079682 9.955428e-05
0.079932 9.980046e-05
0.080182 1.000001e-04
0.080432 1.001532e-04
0.080682 1.002597e-04
0.080932 1.003195e-04
0.081182 1.003326e-04
0.081432 1.002991e-04
0.081682 1.002191e-04
0.081932 1.000924e-04
0.082182 9.991934e-05
0.082432 9.969990e-05
0.082682 9.943423e-05
0.082932 9.912249e-05
0.083182 9.876483e-05
0.083432 9.836145e-05
0.083682 9.791255e-05
0.083932 9.741837e-05
0.084182 9.687916e-05
0.084432 9.629519e-05
0.084682 9.566675e-05
0.084932 9.499416e-05
0.085182 9.427775e-05
0.085432 9.351787e-05
0.085682 9.271491e-05
0.085932 9.186924e-05
0.086182 9.098128e-05
0.086432 9.005147e-05
0.086682 8.908025e-05
0.086932 8.806809e-05
0.087182 8.701549e-05
0.087432 8.592294e-05
0.087682 8.479098e-05
0.087932 8.362014e-05
0.088182 8.241098e-05
0.088432 8.116409e-05
0.088682 7.988005e-05
0.088932 7.855947e-05
0.089182 7.720299e-05
0.089432 7.581124e-05
0.089682 7.438488e-05
0.089932 7.292460e-05
0.090182 7.143107e-05
0.090432 6.990500e-05
0.090682 6.834712e-05
0.090932 6.675815e-05
0.091182 6.513884e-05
0.091432 6.348995e-05
0.091682 6.181226e-05
0.091932 6.010655e-05
0.092182 5.837361e-05
0.092432 5.661427e-05
0.092682 5.482933e-05
0.092932 5.301964e-05
0.093182 5.118603e-05
0.093432 4.932937e-05
0.093682 4.745051e-05
0.093932 4.555033e-05
0.094182 4.362971e-05
0.094432 4.168954e-05
0.094682 3.973073e-05
0.094932 3.775418e-05
0.095182 3.576080e-05
0.095432 3.375153e-05
0.095682 3.172728e-05
0.095932 2.968900e-05
0.096182 2.763762e-05
0.096432 2.557409e-05
0.096682 2.349936e-05
0.096932 2.141439e-05
0.097182 1.932014e-05
0.097432 1.721757e-05
0.097682 1.510765e-05
0.097932 1.299135e-05
0.098182 1.086963e-05
0.098432 8.743475e-06
0.098682 6.613856e-06
0.098932 4.481749e-06
0.099182 2.348129e-06
0.099432 2.139725e-07
0.099682 -1.919745e-06
0.099932 -4.052049e-06
0.100182 -6.181966e-06
0.100432 -8.308524e-06
0.100682 -1.043076e-05
0.100932 -1.254769e-05
0.101182 -1.465837e-05
0.101432 -1.676183e-05
0.101682 -1.885712e-05
0.101932 -2.094328e-05
0.102182 -2.301937e-05
0.102432 -2.508444e-05
0.102682 -2.713756e-05
0.102932 -2.917781e-05
0.103182 -3.120425e-05
0.103432 -3.321597e-05
0.103682 -3.521206e-05
0.103932 -3.719163e-05
0.104182 -3.915377e-05
0.104432 -4.109760e-05
0.104682 -4.302225e-05
0.104932 -4.492685e-05
0.105182 -4.681054e-05
0.105432 -4.867249e-05
0.105682 -5.051184e-05
0.105932 -5.232778e-05
0.106182 -5.411950e-05
0.106432 -5.588619e-05
0.106682 -5.762705e-05
0.106932 -5.934132e-05
0.107182 -6.102823e-05
0.107432 -6.268702e-05
0.107682 -6.431696e-05
0.107932 -6.591732e-05
0.108182 -6.748739e-05
0.108432 -6.902647e-05
0.108682 -7.053388e-05
0.108932 -7.200894e-05
0.109182 -7.345102e-05
0.109432 -7.485947e-05
0.109682 -7.623367e-05
0.109932 -7.757301e-05
0.110182 -7.887691e-05
0.110432 -8.014478e-05
0.110682 -8.137608e-05
0.110932 -8.257027e-05
0.111182 -8.372683e-05
0.111432 -8.484524e-05
0.111682 -8.592502e-05
0.111932 -8.696571e-05
0.112182 -8.796685e-05
0.112432 -8.892801e-05
0.112682 -8.984877e-05
0.112932 -9.072874e-05
0.113182 -9.156755e-05
0.113432 -9.236483e-05
0.113682 -9.312024e-05
0.113932 -9.383346e-05
0.114182 -9.450420e-05
0.114432 -9.513217e-05
0.114682 -9.571711e-05
0.114932 -9.625878e-05
0.115182 -9.675695e-05
0.115432 -9.721143e-05
0.115682 -9.762202e-05
0.115932 -9.798857e-05
0.116182 -9.831094e-05
0.116432 -9.858899e-05
0.116682 -9.882264e-05
0.116932 -9.901178e-05
0.117182 -9.915638e-05
0.117432 -9.925637e-05
0.117682 -9.931174e-05
0.117932 -9.932249e-05
0.118182 -9.928863e-05
0.118432 -9.921020e-05
0.118682 -9.908727e-05
0.118932 -9.891990e-05
0.119182 -9.870820e-05
0.119432 -9.845228e-05
0.119682 -9.815228e-05
0.119932 -9.780837e-05
0.120182 -9.742071e-05
0.120432 -9.698951e-05
0.120682 -9.651498e-05
0.120932 -9.599735e-05
0.121182 -9.543688e-05
0.121432 -9.483385e-05
0.121682 -9.418855e-05
0.121932 -9.350128e-05
0.122182 -9.277239e-05
0.122432 -9.200221e-05
0.122682 -9.119112e-05
0.122932 -9.033949e-05
0.123182 -8.944774e-05
0.123432 -8.851629e-05
0.123682 -8.754556e-05
0.123932 -8.653602e-05
0.124182 -8.548815e-05
0.124432 -8.440242e-05
0.124682 -8.327935e-05
0.124932 -8.211946e-05
0.125182 -8.092329e-05
0.125432 -7.969139e-05
0.125682 -7.842433e-05
0.125932 -7.712270e-05
0.126182 -7.578710e-05
0.126432 -7.441814e-05
0.126682 -7.301646e-05
0.126932 -7.158270e-05
0.127182 -7.011751e-05
0.127432 -6.862157e-05
0.127682 -6.709556e-05
0.127932 -6.554018e-05
0.128182 -6.395614e-05
0.128432 -6.234417e-05
0.128682 -6.070500e-05
0.128932 -5.903937e-05
0.129182 -5.734804e-05
0.129432 -5.563179e-05
0.129682 -5.389138e-05
0.129932 -5.212762e-05
0.130182 -5.034129e-05
0.130432 -4.853321e-05
0.130682 -4.670420e-05
0.130932 -4.485508e-05
0.131182 -4.298669e-05
0.131432 -4.109987e-05
0.131682 -3.919547e-05
0.131932 -3.727435e-05
0.132182 -3.533737e-05
0.132432 -3.338541e-05
0.132682 -3.141934e-05
0.132932 -2.944004e-05
0.133182 -2.744841e-05
0.133432 -2.544533e-05
0.133682 -2.343171e-05
0.133932 -2.140844e-05
0.134182 -1.937643e-05
0.134432 -1.733658e-05
0.134682 -1.528981e-05
0.134932 -1.323704e-05
0.135182 -1.117917e-05
0.135432 -9.117129e-06
0.135682 -7.051828e-06
0.135932 -4.984188e-06
0.136182 -2.915128e-06
0.136432 -8.455677e-07
0.136682 1.223574e-06
0.136932 3.291380e-06
0.137182 5.356934e-06
0.137432 7.419320e-06
0.137682 9.477625e-06
0.137932 1.153094e-05
0.138182 1.357836e-05
0.138432 1.561897e-05
0.138682 1.765189e-05
0.138932 1.967620e-05
0.139182 2.169102e-05
0.139432 2.369547e-05
0.139682 2.568866e-05
0.139932 2.766971e-05
0.140182 2.963776e-05
0.140432 3.159195e-05
0.140682 3.353140e-05
0.140932 3.545529e-05
0.141182 3.736276e-05
0.141432 3.925298e-05
0.141682 4.112512e-05
0.141932 4.297837e-05
0.142182 4.481193e-05
0.142432 4.662498e-05
0.142682 4.841675e-05
0.142932 5.018645e-05
0.143182 5.193332e-05
0.143432 5.365659e-05
0.143682 5.535552e-05
0.143932 5.702938e-05
0.144182 5.867745e-05
0.144432 6.029900e-05
0.144682 6.189334e-05
0.144932 6.345979e-05
0.145182 6.499767e-05
0.145432 6.650631e-05
0.145682 6.798508e-05
0.145932 6.943333e-05
0.146182 7.085046e-05
0.146432 7.223585e-05
0.146682 7.358891e-05
0.146932 7.490906e-05
0.147182 7.619575e-05
0.147432 7.744843e-05
0.147682 7.866657e-05
0.147932 7.984965e-05
0.148182 8.099718e-05
0.148432 8.210867e-05
0.148682 8.318366e-05
0.148932 8.422169e-05
0.149182 8.522233e-05
0.149432 8.618517e-05
0.149682 8.710981e-05
0.149932 8.799586e-05
0.150182 8.884296e-05
0.150432 8.965076e-05
0.150682 9.041893e-05
0.150932 9.114717e-05
0.151182 9.183516e-05
0.151432 9.248265e-05
0.151682 9.308937e-05
0.151932 9.365508e-05
0.152182 9.417955e-05
0.152432 9.466260e-05
0.152682 9.510402e-05
0.152932 9.550365e-05
0.153182 9.586136e-05
0.153432 9.617699e-05
0.153682 9.645046e-05
0.153932 9.668165e-05
0.154182 9.687051e-05
0.154432 9.701696e-05
0.154682 9.712099e-05
0.154932 9.718257e-05
0.155182 9.720170e-05
0.155432 9.717840e-05
0.155682 9.711271e-05
0.155932 9.700469e-05
0.156182 9.685441e-05
0.156432 9.666197e-05
0.156682 9.642748e-05
0.156932 9.615107e-05
0.157182 9.583289e-05
0.157432 9.547310e-05
0.157682 9.507190e-05
0.157932 9.462949e-05
0.158182 9.414608e-05
0.158432 9.362193e-05
0.158682 9.305727e-05
0.158932 9.245240e-05
0.159182 9.180760e-05
0.159432 9.112317e-05
0.159682 9.039946e-05
0.159932 8.963679e-05
0.160182 8.883553e-05
0.160432 8.799607e-05
0.160682 8.711878e-05
0.160932 8.620408e-05
0.161182 8.525240e-05
0.161432 8.426417e-05
0.161682 8.323986e-05
0.161932 8.217993e-05
0.162182 8.108487e-05
0.162432 7.995519e-05
0.162682 7.879141e-05
0.162932 7.759405e-05
0.163182 7.636366e-05
0.163432 7.510079e-05
0.163682 7.380604e-05
0.163932 7.247997e-05
0.164182 7.112320e-05
0.164432 6.973633e-05
0.164682 6.832000e-05
0.164932 6.687483e-05
0.165182 6.540148e-05
0.165432 6.390061e-05
0.165682 6.237290e-05
0.165932 6.081902e-05
0.166182 5.923968e-05
0.166432 5.763558e-05
0.166682 5.600744e-05
0.166932 5.435598e-05
0.167182 5.268194e-05
0.167432 5.098606e-05
0.167682 4.926910e-05
0.167932 4.753182e-05
0.168182 4.577499e-05
0.168432 4.399939e-05
0.168682 4.220579e-05
0.168932 4.039501e-05
0.169182 3.856783e-05
0.169432 3.672507e-05
0.169682 3.486752e-05
0.169932 3.299602e-05
0.170182 3.111139e-05
0.170432 2.921445e-05
0.170682 2.730604e-05
0.170932 2.538699e-05
0.171182 2.345815e-05
0.171432 2.152035e-05
0.171682 1.957446e-05
0.171932 1.762131e-05
0.172182 1.566176e-05
0.172432 1.369667e-05
0.172682 1.172689e-05
0.172932 9.753282e-06
0.173182 7.776701e-06
0.173432 5.798009e-06
0.173682 3.818064e-06
0.173932 1.837725e-06
0.174182 -1.421483e-07
0.174432 -2.120700e-06
0.174682 -4.097072e-06
0.174932 -6.070412e-06
0.175182 -8.039866e-06
0.175432 -1.000458e-05
0.175682 -1.196372e-05
0.175932 -1.391643e-05
0.176182 -1.586188e-05
0.176432 -1.779922e-05
0.176682 -1.972763e-05
0.176932 -2.164627e-05
0.177182 -2.355433e-05
0.177432 -2.545099e-05
0.177682 -2.733544e-05
0.177932 -2.920687e-05
0.178182 -3.106448e-05
0.178432 -3.290748e-05
0.178682 -3.473509e-05
0.178932 -3.654653e-05
0.179182 -3.834102e-05
0.179432 -4.011782e-05
0.179682 -4.187615e-05
0.179932 -4.361529e-05
0.180182 -4.533449e-05
0.180432 -4.703302e-05
0.180682 -4.871018e-05
0.180932 -5.036525e-05
0.181182 -5.199753e-05
0.181432 -5.360635e-05
0.181682 -5.519102e-05
0.181932 -5.675089e-05
0.182182 -5.828529e-05
0.182432 -5.979359e-05
0.182682 -6.127516e-05
0.182932 -6.272939e-05
0.183182 -6.415566e-05
0.183432 -6.555338e-05
0.183682 -6.692199e-05
0.183932 -6.826090e-05
0.184182 -6.956958e-05
0.184432 -7.084747e-05
0.184682 -7.209406e-05
0.184932 -7.330883e-05
0.185182 -7.449130e-05
0.185432 -7.564097e-05
0.185682 -7.675737e-05
0.185932 -7.784007e-05
0.186182 -7.888861e-05
0.186432 -7.990258e-05
0.186682 -8.088157e-05
0.186932 -8.182518e-05
0.187182 -8.273305e-05
0.187432 -8.360481e-05
0.187682 -8.444011e-05
0.187932 -8.523864e-05
0.188182 -8.600007e-05