-0.138818 1.184617e-05
-0.138568 1.279310e-05
-0.138318 1.373102e-05
-0.138068 1.465952e-05
-0.137818 1.557816e-05
-0.137568 1.648652e-05
-0.137318 1.738419e-05
-0.137068 1.827076e-05
-0.136818 1.914583e-05
-0.136568 2.000900e-05
-0.136318 2.085988e-05
-0.136068 2.169810e-05
-0.135818 2.252329e-05
-0.135568 2.333506e-05
-0.135318 2.413307e-05
-0.135068 2.491696e-05
-0.134818 2.568639e-05
-0.134568 2.644102e-05
-0.134318 2.718052e-05
-0.134068 2.790457e-05
-0.133818 2.861287e-05
-0.133568 2.930510e-05
-0.133318 2.998096e-05
-0.133068 3.064019e-05
-0.132818 3.128249e-05
-0.132568 3.190759e-05
-0.132318 3.251524e-05
-0.132068 3.310519e-05
-0.131818 3.367719e-05
-0.131568 3.423101e-05
-0.131318 3.476643e-05
-0.131068 3.528323e-05
-0.130818 3.578121e-05
-0.130568 3.626018e-05
-0.130318 3.671994e-05
-0.130068 3.716033e-05
-0.129818 3.758117e-05
-0.129568 3.798232e-05
-0.129318 3.836362e-05
-0.129068 3.872494e-05
-0.128818 3.906616e-05
-0.128568 3.938715e-05
-0.128318 3.968781e-05
-0.128068 3.996805e-05
-0.127818 4.022778e-05
-0.127568 4.046692e-05
-0.127318 4.068541e-05
-0.127068 4.088319e-05
-0.126818 4.106021e-05
-0.126568 4.121645e-05
-0.126318 4.135187e-05
-0.126068 4.146646e-05
-0.125818 4.156022e-05
-0.125568 4.163315e-05
-0.125318 4.168526e-05
-0.125068 4.171658e-05
-0.124818 4.172714e-05
-0.124568 4.171699e-05
-0.124318 4.168619e-05
-0.124068 4.163479e-05
-0.123818 4.156287e-05
-0.123568 4.147052e-05
-0.123318 4.135783e-05
-0.123068 4.122490e-05
-0.122818 4.107185e-05
-0.122568 4.089878e-05
-0.122318 4.070585e-05
-0.122068 4.049318e-05
-0.121818 4.026093e-05
-0.121568 4.000926e-05
-0.121318 3.973833e-05
-0.121068 3.944831e-05
-0.120818 3.913941e-05
-0.120568 3.881179e-05
-0.120318 3.846568e-05
-0.120068 3.810128e-05
-0.119818 3.771881e-05
-0.119568 3.731850e-05
-0.119318 3.690058e-05
-0.119068 3.646529e-05
-0.118818 3.601289e-05
-0.118568 3.554363e-05
-0.118318 3.505778e-05
-0.118068 3.455561e-05
-0.117818 3.403741e-05
-0.117568 3.350346e-05
-0.117318 3.295404e-05
-0.117068 3.238948e-05
-0.116818 3.181006e-05
-0.116568 3.121612e-05
-0.116318 3.060795e-05
-0.116068 2.998590e-05
-0.115818 2.935029e-05
-0.115568 2.870147e-05
-0.115318 2.803976e-05
-0.115068 2.736553e-05
-0.114818 2.667913e-05
-0.114568 2.598090e-05
-0.114318 2.527123e-05
-0.114068 2.455047e-05
-0.113818 2.381900e-05
-0.113568 2.307719e-05
-0.113318 2.232543e-05
-0.113068 2.156410e-05
-0.112818 2.079358e-05
-0.112568 2.001427e-05
-0.112318 1.922656e-05
-0.112068 1.843086e-05
-0.111818 1.762756e-05
-0.111568 1.681706e-05
-0.111318 1.599977e-05
-0.111068 1.517610e-05
-0.110818 1.434646e-05
-0.110568 1.351126e-05
-0.110318 1.267092e-05
-0.110068 1.182584e-05
-0.109818 1.097646e-05
-0.109568 1.012317e-05
-0.109318 9.266403e-06
-0.109068 8.406578e-06
-0.108818 7.544112e-06
-0.108568 6.679426e-06
-0.108318 5.812937e-06
-0.108068 4.945067e-06
-0.107818 4.076233e-06
-0.107568 3.206855e-06
-0.107318 2.337349e-06
-0.107068 1.468134e-06
-0.106818 5.996235e-07
-0.106568 -2.677670e-07
-0.106318 -1.133625e-06
-0.106068 -1.997540e-06
-0.105818 -2.859103e-06
-0.105568 -3.717907e-06
-0.105318 -4.573547e-06
-0.105068 -5.425621e-06
-0.104818 -6.273730e-06
-0.104568 -7.117477e-06
-0.104318 -7.956469e-06
-0.104068 -8.790316e-06
-0.103818 -9.618630e-06
-0.103568 -1.044103e-05
-0.103318 -1.125713e-05
-0.103068 -1.206657e-05
-0.102818 -1.286896e-05
-0.102568 -1.366394e-05
-0.102318 -1.445115e-05
-0.102068 -1.523023e-05
-0.101818 -1.600083e-05
-0.101568 -1.676260e-05
-0.101318 -1.751519e-05
-0.101068 -1.825827e-05
-0.100818 -1.899150e-05
-0.100568 -1.971456e-05
-0.100318 -2.042712e-05
-0.100068 -2.112888e-05
-0.099818 -2.181951e-05
-0.099568 -2.249872e-05
-0.099318 -2.316620e-05
-0.099068 -2.382168e-05
-0.098818 -2.446485e-05
-0.098568 -2.509545e-05
-0.098318 -2.571320e-05
-0.098068 -2.631784e-05
-0.097818 -2.690910e-05
-0.097568 -2.748674e-05
-0.097318 -2.805052e-05
-0.097068 -2.860020e-05
-0.096818 -2.913554e-05
-0.096568 -2.965633e-05
-0.096318 -3.016235e-05
-0.096068 -3.065340e-05
-0.095818 -3.112927e-05
-0.095568 -3.158978e-05
-0.095318 -3.203473e-05
-0.095068 -3.246397e-05
-0.094818 -3.287730e-05
-0.094568 -3.327459e-05
-0.094318 -3.365567e-05
-0.094068 -3.402040e-05
-0.093818 -3.436865e-05
-0.093568 -3.470028e-05
-0.093318 -3.501519e-05
-0.093068 -3.531325e-05
-0.092818 -3.559436e-05
-0.092568 -3.585844e-05
-0.092318 -3.610539e-05
-0.092068 -3.633514e-05
-0.091818 -3.654761e-05
-0.091568 -3.674276e-05
-0.091318 -3.692051e-05
-0.091068 -3.708084e-05
-0.090818 -3.722370e-05
-0.090568 -3.734907e-05
-0.090318 -3.745692e-05
-0.090068 -3.754726e-05
-0.089818 -3.762006e-05
-0.089568 -3.767536e-05
-0.089318 -3.771314e-05
-0.089068 -3.773345e-05
-0.088818 -3.773630e-05
-0.088568 -3.772175e-05
-0.088318 -3.768983e-05
-0.088068 -3.764061e-05
-0.087818 -3.757414e-05
-0.087568 -3.749050e-05
-0.087318 -3.738976e-05
-0.087068 -3.727203e-05
-0.086818 -3.713738e-05
-0.086568 -3.698593e-05
-0.086318 -3.681778e-05
-0.086068 -3.663306e-05
-0.085818 -3.643189e-05
-0.085568 -3.621440e-05
-0.085318 -3.598074e-05
-0.085068 -3.573106e-05
-0.084818 -3.546551e-05
-0.084568 -3.518425e-05
-0.084318 -3.488745e-05
-0.084068 -3.457530e-05
-0.083818 -3.424797e-05
-0.083568 -3.390566e-05
-0.083318 -3.354856e-05
-0.083068 -3.317687e-05
-0.082818 -3.279082e-05
-0.082568 -3.239061e-05
-0.082318 -3.197647e-05
-0.082068 -3.154863e-05
-0.081818 -3.110731e-05
-0.081568 -3.065277e-05
-0.081318 -3.018525e-05
-0.081068 -2.970500e-05
-0.080818 -2.921228e-05
-0.080568 -2.870735e-05
-0.080318 -2.819048e-05
-0.080068 -2.766194e-05
-0.079818 -2.712201e-05
-0.079568 -2.657098e-05
-0.079318 -2.600913e-05
-0.079068 -2.543674e-05
-0.078818 -2.485413e-05
-0.078568 -2.426158e-05
-0.078318 -2.365940e-05
-0.078068 -2.304791e-05
-0.077818 -2.242740e-05
-0.077568 -2.179821e-05
-0.077318 -2.116063e-05
-0.077068 -2.051501e-05
-0.076818 -1.986165e-05
-0.076568 -1.920090e-05
-0.076318 -1.853307e-05
-0.076068 -1.785850e-05
-0.075818 -1.717754e-05
-0.075568 -1.649051e-05
-0.075318 -1.579775e-05
-0.075068 -1.509961e-05
-0.074818 -1.439642e-05
-0.074568 -1.368855e-05
-0.074318 -1.297632e-05
-0.074068 -1.226009e-05
-0.073818 -1.154020e-05
-0.073568 -1.081702e-05
-0.073318 -1.009087e-05
-0.073068 -9.362127e-06
-0.072818 -8.631128e-06
-0.072568 -7.898227e-06
-0.072318 -7.163776e-06
-0.072068 -6.428127e-06
-0.071818 -5.691629e-06
-0.071568 -4.954635e-06
-0.071318 -4.217493e-06
-0.071068 -3.480553e-06
-0.070818 -2.744162e-06
-0.070568 -2.008669e-06
-0.070318 -1.274419e-06
-0.070068 -5.417568e-07
-0.069818 1.889753e-07
-0.069568 9.174359e-07
-0.069318 1.643286e-06
-0.069068 2.366187e-06
-0.068818 3.085806e-06
-0.068568 3.801808e-06
-0.068318 4.513865e-06
-0.068068 5.221648e-06
-0.067818 5.924833e-06
-0.067568 6.623098e-06
-0.067318 7.316124e-06
-0.067068 8.003595e-06
-0.066818 8.685201e-06
-0.066568 9.360631e-06
-0.066318 1.002958e-05
-0.066068 1.069175e-05
-0.065818 1.134684e-05
-0.065568 1.199456e-05
-0.065318 1.263462e-05
-0.065068 1.326674e-05
-0.064818 1.389063e-05
-0.064568 1.450602e-05
-0.064318 1.511263e-05
-0.064068 1.571021e-05
-0.063818 1.629849e-05
-0.063568 1.687722e-05
-0.063318 1.744613e-05
-0.063068 1.800499e-05
-0.062818 1.855356e-05
-0.062568 1.909160e-05
-0.062318 1.961889e-05
-0.062068 2.013518e-05
-0.061818 2.064028e-05
-0.061568 2.113396e-05
-0.061318 2.161603e-05
-0.061068 2.208627e-05
-0.060818 2.254449e-05
-0.060568 2.299052e-05
-0.060318 2.342415e-05
-0.060068 2.384522e-05
-0.059818 2.425356e-05
-0.059568 2.464900e-05
-0.059318 2.503139e-05
-0.059068 2.540058e-05
-0.058818 2.575642e-05
-0.058568 2.609878e-05
-0.058318 2.642752e-05
-0.058068 2.674252e-05
-0.057818 2.704367e-05
-0.057568 2.733085e-05
-0.057318 2.760397e-05
-0.057068 2.786292e-05
-0.056818 2.810761e-05
-0.056568 2.833797e-05
-0.056318 2.855391e-05
-0.056068 2.875537e-05
-0.055818 2.894229e-05
-0.055568 2.911461e-05
-0.055318 2.927229e-05
-0.055068 2.941528e-05
-0.054818 2.954355e-05
-0.054568 2.965707e-05
-0.054318 2.975582e-05
-0.054068 2.983979e-05
-0.053818 2.990898e-05
-0.053568 2.996339e-05
-0.053318 3.000302e-05
-0.053068 3.002789e-05
-0.052818 3.003802e-05
-0.052568 3.003344e-05
-0.052318 3.001419e-05
-0.052068 2.998030e-05
-0.051818 2.993184e-05
-0.051568 2.986884e-05
-0.051318 2.979139e-05
-0.051068 2.969954e-05
-0.050818 2.959337e-05
-0.050568 2.947297e-05
-0.050318 2.933842e-05
-0.050068 2.918982e-05
-0.049818 2.902728e-05
-0.049568 2.885089e-05
-0.049318 2.866078e-05
-0.049068 2.845706e-05
-0.048818 2.823987e-05
-0.048568 2.800933e-05
-0.048318 2.776558e-05
-0.048068 2.750877e-05
-0.047818 2.723905e-05
-0.047568 2.695657e-05
-0.047318 2.666150e-05
-0.047068 2.635401e-05
-0.046818 2.603426e-05
-0.046568 2.570243e-05
-0.046318 2.535872e-05
-0.046068 2.500330e-05
-0.045818 2.463637e-05
-0.045568 2.425812e-05
-0.045318 2.386878e-05
-0.045068 2.346853e-05
-0.044818 2.305759e-05
-0.044568 2.263618e-05
-0.044318 2.220453e-05
-0.044068 2.176285e-05
-0.043818 2.131138e-05
-0.043568 2.085035e-05
-0.043318 2.038001e-05
-0.043068 1.990058e-05
-0.042818 1.941232e-05
-0.042568 1.891548e-05
-0.042318 1.841031e-05
-0.042068 1.789706e-05
-0.041818 1.737600e-05
-0.041568 1.684739e-05
-0.041318 1.631149e-05
-0.041068 1.576856e-05
-0.040818 1.521889e-05
-0.040568 1.466274e-05
-0.040318 1.410039e-05
-0.040068 1.353212e-05
-0.039818 1.295820e-05
-0.039568 1.237893e-05
-0.039318 1.179457e-05
-0.039068 1.120543e-05
-0.038818 1.061177e-05
-0.038568 1.001391e-05
-0.038318 9.412114e-06
-0.038068 8.806685e-06
-0.037818 8.197912e-06
-0.037568 7.586089e-06
-0.037318 6.971509e-06
-0.037068 6.354467e-06
-0.036818 5.735257e-06
-0.036568 5.114174e-06
-0.036318 4.491514e-06
-0.036068 3.867571e-06
-0.035818 3.242642e-06
-0.035568 2.617022e-06
-0.035318 1.991004e-06
-0.035068 1.364883e-06
-0.034818 7.389532e-07
-0.034568 1.135066e-07
-0.034318 -5.111646e-07
-0.034068 -1.134770e-06
-0.033818 -1.757019e-06
-0.033568 -2.377624e-06
-0.033318 -2.996297e-06
-0.033068 -3.612755e-06
-0.032818 -4.226711e-06
-0.032568 -4.837886e-06
-0.032318 -5.445999e-06
-0.032068 -6.050771e-06
-0.031818 -6.651929e-06
-0.031568 -7.249197e-06
-0.031318 -7.842305e-06
-0.031068 -8.430986e-06
-0.030818 -9.014972e-06
-0.030568 -9.594002e-06
-0.030318 -1.016782e-05
-0.030068 -1.073616e-05
-0.029818 -1.129877e-05
-0.029568 -1.185541e-05
-0.029318 -1.240582e-05
-0.029068 -1.294976e-05
-0.028818 -1.348699e-05
-0.028568 -1.401728e-05
-0.028318 -1.454040e-05
-0.028068 -1.505610e-05
-0.027818 -1.556418e-05
-0.027568 -1.606440e-05
-0.027318 -1.655656e-05
-0.027068 -1.704043e-05
-0.026818 -1.751582e-05
-0.026568 -1.798252e-05
-0.026318 -1.844032e-05
-0.026068 -1.888904e-05
-0.025818 -1.932849e-05
-0.025568 -1.975848e-05
-0.025318 -2.017882e-05
-0.025068 -2.058936e-05
-0.024818 -2.098990e-05
-0.024568 -2.138030e-05
-0.024318 -2.176039e-05
-0.024068 -2.213001e-05
-0.023818 -2.248902e-05
-0.023568 -2.283727e-05
-0.023318 -2.317462e-05
-0.023068 -2.350094e-05
-0.022818 -2.381610e-05
-0.022568 -2.411998e-05
-0.022318 -2.441246e-05
-0.022068 -2.469342e-05
-0.021818 -2.496277e-05
-0.021568 -2.522041e-05
-0.021318 -2.546623e-05
-0.021068 -2.570015e-05
-0.020818 -2.592208e-05
-0.020568 -2.613195e-05
-0.020318 -2.632969e-05
-0.020068 -2.651523e-05
-0.019818 -2.668851e-05
-0.019568 -2.684948e-05
-0.019318 -2.699809e-05
-0.019068 -2.713429e-05
-0.018818 -2.725805e-05
-0.018568 -2.736934e-05
-0.018318 -2.746814e-05
-0.018068 -2.755442e-05
-0.017818 -2.762817e-05
-0.017568 -2.768939e-05
-0.017318 -2.773806e-05
-0.017068 -2.777421e-05
-0.016818 -2.779783e-05
-0.016568 -2.780895e-05
-0.016318 -2.780758e-05
-0.016068 -2.779376e-05
-0.015818 -2.776751e-05
-0.015568 -2.772888e-05
-0.015318 -2.767791e-05
-0.015068 -2.761465e-05
-0.014818 -2.753915e-05
-0.014568 -2.745149e-05
-0.014318 -2.735171e-05
-0.014068 -2.723991e-05
-0.013818 -2.711615e-05
-0.013568 -2.698051e-05
-0.013318 -2.683310e-05
-0.013068 -2.667399e-05
-0.012818 -2.650330e-05
-0.012568 -2.632111e-05
-0.012318 -2.612755e-05
-0.012068 -2.592273e-05
-0.011818 -2.570677e-05
-0.011568 -2.547978e-05
-0.011318 -2.524191e-05
-0.011068 -2.499327e-05
-0.010818 -2.473402e-05
-0.010568 -2.446430e-05
-0.010318 -2.418425e-05
-0.010068 -2.389402e-05
-0.009818 -2.359377e-05
-0.009568 -2.328367e-05
-0.009318 -2.296387e-05
-0.009068 -2.263455e-05
-0.008818 -2.229588e-05
-0.008568 -2.194804e-05
-0.008318 -2.159120e-05
-0.008068 -2.122555e-05
-0.007818 -2.085129e-05
-0.007568 -2.046860e-05
-0.007318 -2.007767e-05
-0.007068 -1.967871e-05
-0.006818 -1.927192e-05
-0.006568 -1.885751e-05
-0.006318 -1.843567e-05
-0.006068 -1.800663e-05
-0.005818 -1.757060e-05
-0.005568 -1.712779e-05
-0.005318 -1.667842e-05
-0.005068 -1.622272e-05
-0.004818 -1.576092e-05
-0.004568 -1.529322e-05
-0.004318 -1.481988e-05
-0.004068 -1.434111e-05
-0.003818 -1.385716e-05
-0.003568 -1.336825e-05
-0.003318 -1.287463e-05
-0.003068 -1.237652e-05
-0.002818 -1.187418e-05
-0.002568 -1.136784e-05
-0.002318 -1.085774e-05
-0.002068 -1.034414e-05
-0.001818 -9.827272e-06
-0.001568 -9.307384e-06
-0.001318 -8.784723e-06
-0.001068 -8.259538e-06
-0.000818 -7.732077e-06
-0.000568 -7.202588e-06
-0.000318 -6.671321e-06
-0.000068 -6.138524e-06
0.000182 -5.604448e-06
0.000432 -5.069343e-06
0.000682 -4.533456e-06
0.000932 -3.997039e-06
0.001182 -3.460339e-06
0.001432 -2.923606e-06
0.001682 -2.387088e-06
0.001932 -1.851031e-06
0.002182 -1.315684e-06
0.002432 -7.812904e-07
0.002682 -2.480962e-07
0.002932 2.836549e-07
0.003182 8.137207e-07
0.003432 1.341860e-06
0.003682 1.867832e-06
0.003932 2.391400e-06
0.004182 2.912327e-06
0.004432 3.430378e-06
0.004682 3.945319e-06
0.004932 4.456920e-06
0.005182 4.964952e-06
0.005432 5.469188e-06
0.005682 5.969403e-06
0.005932 6.465375e-06
0.006182 6.956884e-06
0.006432 7.443713e-06
0.006682 7.925647e-06
0.006932 8.402474e-06
0.007182 8.873985e-06
0.007432 9.339975e-06
0.007682 9.800238e-06
0.007932 1.025458e-05
0.008182 1.070279e-05
0.008432 1.114469e-05
0.008682 1.158009e-05
0.008932 1.200879e-05
0.009182 1.243061e-05
0.009432 1.284537e-05
0.009682 1.325291e-05
0.009932 1.365303e-05
0.010182 1.404559e-05
0.010432 1.443040e-05
0.010682 1.480731e-05
0.010932 1.517617e-05
0.011182 1.553682e-05
0.011432 1.588910e-05
0.011682 1.623289e-05
0.011932 1.656803e-05
0.012182 1.689439e-05
0.012432 1.721183e-05
0.012682 1.752024e-05
0.012932 1.781949e-05
0.013182 1.810945e-05
0.013432 1.839002e-05
0.013682 1.866109e-05
0.013932 1.892254e-05
0.014182 1.917429e-05
0.014432 1.941623e-05
0.014682 1.964828e-05
0.014932 1.987035e-05
0.015182 2.008235e-05
0.015432 2.028421e-05
0.015682 2.047587e-05
0.015932 2.065724e-05
0.016182 2.082828e-05
0.016432 2.098892e-05
0.016682 2.113911e-05
0.016932 2.127881e-05
0.017182 2.140796e-05
0.017432 2.152655e-05
0.017682 2.163452e-05
0.017932 2.173186e-05
0.018182 2.181855e-05
0.018432 2.189455e-05
0.018682 2.195987e-05
0.018932 2.201450e-05
0.019182 2.205842e-05
0.019432 2.209165e-05
0.019682 2.211419e-05
0.019932 2.212605e-05
0.020182 2.212725e-05
0.020432 2.211782e-05
0.020682 2.209777e-05
0.020932 2.206714e-05
0.021182 2.202596e-05
0.021432 2.197428e-05
0.021682 2.191215e-05
0.021932 2.183960e-05
0.022182 2.175670e-05
0.022432 2.166351e-05
0.022682 2.156008e-05
0.022932 2.144650e-05
0.023182 2.132283e-05
0.023432 2.118914e-05
0.023682 2.104553e-05
0.023932 2.089208e-05
0.024182 2.072888e-05
0.024432 2.055602e-05
0.024682 2.037361e-05
0.024932 2.018174e-05
0.025182 1.998053e-05
0.025432 1.977008e-05
0.025682 1.955051e-05
0.025932 1.932195e-05
0.026182 1.908451e-05
0.026432 1.883832e-05
0.026682 1.858351e-05
0.026932 1.832022e-05
0.027182 1.804859e-05
0.027432 1.776876e-05
0.027682 1.748086e-05
0.027932 1.718506e-05
0.028182 1.688150e-05
0.028432 1.657033e-05
0.028682 1.625173e-05
0.028932 1.592584e-05
0.029182 1.559283e-05
0.029432 1.525286e-05
0.029682 1.490612e-05
0.029932 1.455277e-05
0.030182 1.419298e-05
0.030432 1.382694e-05
0.030682 1.345482e-05
0.030932 1.307681e-05
0.031182 1.269310e-05
0.031432 1.230386e-05
0.031682 1.190929e-05
0.031932 1.150958e-05
0.032182 1.110493e-05
0.032432 1.069552e-05
0.032682 1.028156e-05
0.032932 9.863250e-06
0.033182 9.440782e-06
0.033432 9.014360e-06
0.033682 8.584189e-06
0.033932 8.150471e-06
0.034182 7.713414e-06
0.034432 7.273222e-06
0.034682 6.830105e-06
0.034932 6.384271e-06
0.035182 5.935928e-06
0.035432 5.485288e-06
0.035682 5.032559e-06
0.035932 4.577955e-06
0.036182 4.121685e-06
0.036432 3.663963e-06
0.036682 3.205000e-06
0.036932 2.745008e-06
0.037182 2.284199e-06
0.037432 1.822786e-06
0.037682 1.360980e-06
0.037932 8.989939e-07
0.038182 4.370380e-07
0.038432 -2.467656e-08
0.038682 -4.859395e-07
0.038932 -9.465411e-07
0.039182 -1.406272e-06
0.039432 -1.864926e-06
0.039682 -2.322293e-06
0.039932 -2.778170e-06
0.040182 -3.232349e-06
0.040432 -3.684629e-06
0.040682 -4.134805e-06
0.040932 -4.582678e-06
0.041182 -5.028047e-06
0.041432 -5.470714e-06
0.041682 -5.910484e-06
0.041932 -6.347160e-06
0.042182 -6.780551e-06
0.042432 -7.210465e-06
0.042682 -7.636713e-06
0.042932 -8.059109e-06
0.043182 -8.477467e-06
0.043432 -8.891605e-06
0.043682 -9.301343e-06
0.043932 -9.706502e-06
0.044182 -1.010691e-05
0.044432 -1.050239e-05
0.044682 -1.089277e-05
0.044932 -1.127789e-05
0.045182 -1.165758e-05
0.045432 -1.203167e-05
0.045682 -1.240002e-05
0.045932 -1.276246e-05
0.046182 -1.311884e-05
0.046432 -1.346901e-05
0.046682 -1.381282e-05
0.046932 -1.415013e-05
0.047182 -1.448080e-05
0.047432 -1.480469e-05
0.047682 -1.512167e-05
0.047932 -1.543160e-05
0.048182 -1.573436e-05
0.048432 -1.602983e-05
0.048682 -1.631789e-05
0.048932 -1.659841e-05
0.049182 -1.687130e-05
0.049432 -1.713643e-05
0.049682 -1.739370e-05
0.049932 -1.764302e-05
0.050182 -1.788428e-05
0.050432 -1.811739e-05
0.050682 -1.834226e-05
0.050932 -1.855880e-05
0.051182 -1.876694e-05
0.051432 -1.896659e-05
0.051682 -1.915768e-05
0.051932 -1.934015e-05
0.052182 -1.951391e-05
0.052432 -1.967893e-05
0.052682 -1.983512e-05
0.052932 -1.998245e-05
0.053182 -2.012086e-05
0.053432 -2.025031e-05
0.053682 -2.037075e-05
0.053932 -2.048215e-05
0.054182 -2.058448e-05
0.054432 -2.067771e-05
0.054682 -2.076180e-05
0.054932 -2.083676e-05
0.055182 -2.090254e-05
0.055432 -2.095916e-05
0.055682 -2.100658e-05
0.055932 -2.104483e-05
0.056182 -2.107388e-05
0.056432 -2.109376e-05
0.056682 -2.110446e-05
0.056932 -2.110600e-05
0.057182 -2.109841e-05
0.057432 -2.108169e-05
0.057682 -2.105587e-05
0.057932 -2.102099e-05
0.058182 -2.097708e-05
0.058432 -2.092417e-05
0.058682 -2.086230e-05
0.058932 -2.079153e-05
0.059182 -2.071190e-05
0.059432 -2.062347e-05
0.059682 -2.052628e-05
0.059932 -2.042041e-05
0.060182 -2.030592e-05
0.060432 -2.018287e-05
0.060682 -2.005134e-05
0.060932 -1.991140e-05
0.061182 -1.976314e-05
0.061432 -1.960663e-05
0.061682 -1.944197e-05
0.061932 -1.926924e-05
0.062182 -1.908854e-05
0.062432 -1.889996e-05
0.062682 -1.870361e-05
0.062932 -1.849958e-05
0.063182 -1.828800e-05
0.063432 -1.806896e-05
0.063682 -1.784257e-05
0.063932 -1.760897e-05
0.064182 -1.736826e-05
0.064432 -1.712056e-05
0.064682 -1.686601e-05
0.064932 -1.660474e-05
0.065182 -1.633686e-05
0.065432 -1.606252e-05
0.065682 -1.578185e-05
0.065932 -1.549499e-05
0.066182 -1.520209e-05
0.066432 -1.490328e-05
0.066682 -1.459872e-05
0.066932 -1.428854e-05
0.067182 -1.397291e-05
0.067432 -1.365197e-05
0.067682 -1.332588e-05
0.067932 -1.299480e-05
0.068182 -1.265888e-05
0.068432 -1.231828e-05
0.068682 -1.197318e-05
0.068932 -1.162373e-05
0.069182 -1.127010e-05
0.069432 -1.091245e-05
0.069682 -1.055096e-05
0.069932 -1.018579e-05
0.070182 -9.817120e-06
0.070432 -9.445118e-06
0.070682 -9.069960e-06
0.070932 -8.691820e-06
0.071182 -8.310874e-06
0.071432 -7.927298e-06
0.071682 -7.541272e-06
0.071932 -7.152972e-06
0.072182 -6.762579e-06
0.072432 -6.370272e-06
0.072682 -5.976231e-06
0.072932 -5.580637e-06
0.073182 -5.183670e-06
0.073432 -4.785512e-06
0.073682 -4.386344e-06
0.073932 -3.986347e-06
0.074182 -3.585704e-06
0.074432 -3.184595e-06
0.074682 -2.783201e-06
0.074932 -2.381704e-06
0.075182 -1.980284e-06
0.075432 -1.579122e-06
0.075682 -1.178397e-06
0.075932 -7.782877e-07
0.076182 -3.789737e-07
0.076432 1.936763e-08
0.076682 4.165591e-07
0.076932 8.124246e-07
0.077182 1.206789e-06
0.077432 1.599478e-06
0.077682 1.990318e-06
0.077932 2.379138e-06
0.078182 2.765767e-06
0.078432 3.150036e-06
0.078682 3.531777e-06
0.078932 3.910822e-06
0.079182 4.287008e-06
0.079432 4.660171e-06
0.079682 5.030150e-06
0.079932 5.396784e-06
0.080182 5.759915e-06
0.080432 6.119388e-06
0.080682 6.475049e-06
0.080932 6.826744e-06
0.081182 7.174325e-06
0.081432 7.517642e-06
0.081682 7.856551e-06
0.081932 8.190908e-06
0.082182 8.520571e-06
0.082432 8.845403e-06
0.082682 9.165266e-06
0.082932 9.480027e-06
0.083182 9.789555e-06
0.083432 1.009372e-05
0.083682 1.039240e-05
0.083932 1.068547e-05
0.084182 1.097280e-05
0.084432 1.125429e-05
0.084682 1.152981e-05
0.084932 1.179925e-05
0.085182 1.206251e-05
0.085432 1.231948e-05
0.085682 1.257006e-05
0.085932 1.281414e-05
0.086182 1.305163e-05
0.086432 1.328244e-05
0.086682 1.350647e-05
0.086932 1.372364e-05
0.087182 1.393386e-05
0.087432 1.413706e-05
0.087682 1.433315e-05
0.087932 1.452206e-05
0.088182 1.470373e-05
0.088432 1.487807e-05
0.088682 1.504504e-05
0.088932 1.520457e-05
0.089182 1.535659e-05
0.089432 1.550107e-05
0.089682 1.563795e-05
0.089932 1.576717e-05
0.090182 1.588871e-05
0.090432 1.600251e-05
0.090682 1.610854e-05
0.090932 1.620678e-05
0.091182 1.629719e-05
0.091432 1.637974e-05
0.091682 1.645442e-05
0.091932 1.652120e-05
0.092182 1.658008e-05
0.092432 1.663103e-05
0.092682 1.667406e-05
0.092932 1.670915e-05
0.093182 1.673631e-05
0.093432 1.675554e-05
0.093682 1.676685e-05
0.093932 1.677025e-05
0.094182 1.676575e-05
0.094432 1.675336e-05
0.094682 1.673312e-05
0.094932 1.670503e-05
0.095182 1.666914e-05
0.095432 1.662547e-05
0.095682 1.657405e-05
0.095932 1.651493e-05
0.096182 1.644814e-05
0.096432 1.637372e-05
0.096682 1.629174e-05
0.096932 1.620223e-05
0.097182 1.610526e-05
0.097432 1.600087e-05
0.097682 1.588913e-05
0.097932 1.577011e-05
0.098182 1.564386e-05
0.098432 1.551047e-05
0.098682 1.537000e-05
0.098932 1.522253e-05
0.099182 1.506814e-05
0.099432 1.490691e-05
0.099682 1.473892e-05
0.099932 1.456427e-05
0.100182 1.438304e-05
0.100432 1.419533e-05
0.100682 1.400123e-05
0.100932 1.380085e-05
0.101182 1.359427e-05
0.101432 1.338161e-05
0.101682 1.316298e-05
0.101932 1.293847e-05
0.102182 1.270821e-05
0.102432 1.247231e-05
0.102682 1.223087e-05
0.102932 1.198403e-05
0.103182 1.173189e-05
0.103432 1.147459e-05
0.103682 1.121224e-05
0.103932 1.094498e-05
0.104182 1.067293e-05
0.104432 1.039621e-05
0.104682 1.011498e-05
0.104932 9.829343e-06
0.105182 9.539453e-06
0.105432 9.245441e-06
0.105682 8.947447e-06
0.105932 8.645610e-06
0.106182 8.340073e-06
0.106432 8.030977e-06
0.106682 7.718468e-06
0.106932 7.402690e-06
0.107182 7.083790e-06
0.107432 6.761915e-06
0.107682 6.437215e-06
0.107932 6.109839e-06
0.108182 5.779938e-06
0.108432 5.447662e-06
0.108682 5.113164e-06
0.108932 4.776597e-06
0.109182 4.438114e-06
0.109432 4.097870e-06
0.109682 3.756018e-06
0.109932 3.412713e-06
0.110182 3.068111e-06
0.110432 2.722367e-06
0.110682 2.375638e-06
0.110932 2.028077e-06
0.111182 1.679843e-06
0.111432 1.331089e-06
0.111682 9.819730e-07
0.111932 6.326496e-07
0.112182 2.832743e-07
0.112432 -6.599755e-08
0.112682 -4.150113e-07
0.112932 -7.636125e-07
0.113182 -1.111647e-06
0.113432 -1.458962e-06
0.113682 -1.805405e-06
0.113932 -2.150823e-06
0.114182 -2.495065e-06
0.114432 -2.837981e-06
0.114682 -3.179421e-06
0.114932 -3.519236e-06
0.115182 -3.857280e-06
0.115432 -4.193405e-06
0.115682 -4.527465e-06
0.115932 -4.859317e-06
0.116182 -5.188818e-06
0.116432 -5.515826e-06
0.116682 -5.840201e-06
0.116932 -6.161804e-06
0.117182 -6.480497e-06
0.117432 -6.796146e-06
0.117682 -7.108615e-06
0.117932 -7.417772e-06
0.118182 -7.723487e-06
0.118432 -8.025630e-06
0.118682 -8.324074e-06
0.118932 -8.618694e-06
0.119182 -8.909367e-06
0.119432 -9.195972e-06
0.119682 -9.478388e-06
0.119932 -9.756499e-06
0.120182 -1.003019e-05
0.120432 -1.029935e-05
0.120682 -1.056386e-05
0.120932 -1.082362e-05
0.121182 -1.107853e-05
0.121432 -1.132847e-05
0.121682 -1.157334e-05
0.121932 -1.181306e-05
0.122182 -1.204751e-05
0.122432 -1.227661e-05
0.122682 -1.250027e-05
0.122932 -1.271839e-05
0.123182 -1.293090e-05
0.123432 -1.313770e-05
0.123682 -1.333872e-05
0.123932 -1.353387e-05
0.124182 -1.372309e-05
0.124432 -1.390630e-05
0.124682 -1.408342e-05
0.124932 -1.425440e-05
0.125182 -1.441917e-05
0.125432 -1.457767e-05
0.125682 -1.472983e-05
0.125932 -1.487561e-05
0.126182 -1.501495e-05
0.126432 -1.514779e-05
0.126682 -1.527411e-05
0.126932 -1.539384e-05
0.127182 -1.550695e-05
0.127432 -1.561341e-05
0.127682 -1.571317e-05
0.127932 -1.580620e-05
0.128182 -1.589249e-05
0.128432 -1.597199e-05
0.128682 -1.604469e-05
0.128932 -1.611057e-05
0.129182 -1.616961e-05
0.129432 -1.622180e-05
0.129682 -1.626713e-05
0.129932 -1.630559e-05
0.130182 -1.633717e-05
0.130432 -1.636188e-05
0.130682 -1.637972e-05
0.130932 -1.639068e-05
0.131182 -1.639479e-05
0.131432 -1.639204e-05
0.131682 -1.638246e-05
0.131932 -1.636606e-05
0.132182 -1.634285e-05
0.132432 -1.631287e-05
0.132682 -1.627614e-05
0.132932 -1.623268e-05
0.133182 -1.618253e-05
0.133432 -1.612572e-05
0.133682 -1.606229e-05
0.133932 -1.599228e-05
0.134182 -1.591572e-05
0.134432 -1.583268e-05
0.134682 -1.574319e-05
0.134932 -1.564731e-05
0.135182 -1.554509e-05
0.135432 -1.543658e-05
0.135682 -1.532185e-05
0.135932 -1.520096e-05
0.136182 -1.507397e-05
0.136432 -1.494094e-05
0.136682 -1.480196e-05
0.136932 -1.465708e-05
0.137182 -1.450639e-05
0.137432 -1.434996e-05
0.137682 -1.418787e-05
0.137932 -1.402020e-05
0.138182 -1.384704e-05
0.138432 -1.366847e-05
0.138682 -1.348458e-05
0.138932 -1.329545e-05
0.139182 -1.310119e-05
0.139432 -1.290189e-05
0.139682 -1.269764e-05
0.139932 -1.248854e-05
0.140182 -1.227470e-05
0.140432 -1.205621e-05
0.140682 -1.183317e-05
0.140932 -1.160571e-05
0.141182 -1.137391e-05
0.141432 -1.113790e-05
0.141682 -1.089779e-05
0.141932 -1.065368e-05
0.142182 -1.040569e-05
0.142432 -1.015393e-05
0.142682 -9.898532e-06
0.142932 -9.639603e-06
0.143182 -9.377266e-06
0.143432 -9.111642e-06
0.143682 -8.842853e-06
0.143932 -8.571023e-06
0.144182 -8.296276e-06
0.144432 -8.018738e-06
0.144682 -7.738535e-06
0.144932 -7.455795e-06
0.145182 -7.170647e-06
0.145432 -6.883218e-06
0.145682 -6.593640e-06
0.145932 -6.302043e-06
0.146182 -6.008558e-06
0.146432 -5.713318e-06
0.146682 -5.416453e-06
0.146932 -5.118098e-06
0.147182 -4.818385e-06
0.147432 -4.517448e-06
0.147682 -4.215421e-06
0.147932 -3.912438e-06
0.148182 -3.608632e-06
0.148432 -3.304139e-06
0.148682 -2.999092e-06
0.148932 -2.693626e-06
0.149182 -2.387876e-06
0.149432 -2.081975e-06
0.149682 -1.776057e-06
0.149932 -1.470256e-06
0.150182 -1.164705e-06
0.150432 -8.595377e-07
0.150682 -5.548862e-07
0.150932 -2.508828e-07
0.151182 5.234110e-08
0.151432 3.546544e-07
0.151682 6.559268e-07
0.151932 9.560286e-07
0.152182 1.254831e-06
0.152432 1.552206e-06
0.152682 1.848026e-06
0.152932 2.142166e-06
0.153182 2.434499e-06
0.153432 2.724902e-06
0.153682 3.013251e-06
0.153932 3.299425e-06
0.154182 3.583301e-06
0.154432 3.864762e-06
0.154682 4.143688e-06
0.154932 4.419963e-06
0.155182 4.693471e-06
0.155432 4.964097e-06
0.155682 5.231729e-06
0.155932 5.496256e-06
0.156182 5.757567e-06
0.156432 6.015556e-06
0.156682 6.270116e-06
0.156932 6.521141e-06
0.157182 6.768530e-06
0.157432 7.012180e-06
0.157682 7.251993e-06
0.157932 7.487871e-06
0.158182 7.719719e-06
0.158432 7.947442e-06
0.158682 8.170950e-06
0.158932 8.390152e-06
0.159182 8.604962e-06
0.159432 8.815293e-06
0.159682 9.021062e-06
0.159932 9.222189e-06
0.160182 9.418593e-06
0.160432 9.610198e-06
0.160682 9.796930e-06
0.160932 9.978715e-06
0.161182 1.015548e-05
0.161432 1.032717e-05
0.161682 1.049371e-05
0.161932 1.065503e-05
0.162182 1.081108e-05
0.162432 1.096180e-05
0.162682 1.110714e-05
0.162932 1.124703e-05
0.163182 1.138144e-05
0.163432 1.151030e-05
0.163682 1.163358e-05
0.163932 1.175123e-05
0.164182 1.186321e-05
0.164432 1.196948e-05
0.164682 1.207001e-05
0.164932 1.216476e-05
0.165182 1.225370e-05
0.165432 1.233681e-05
0.165682 1.241406e-05
0.165932 1.248542e-05
0.166182 1.255088e-05
0.166432 1.261042e-05
0.166682 1.266403e-05
0.166932 1.271168e-05
0.167182 1.275338e-05
0.167432 1.278911e-05
0.167682 1.281887e-05
0.167932 1.284266e-05
0.168182 1.286047e-05
0.168432 1.287232e-05
0.168682 1.287820e-05
0.168932 1.287814e-05
0.169182 1.287212e-05
0.169432 1.286018e-05
0.169682 1.284233e-05
0.169932 1.281857e-05
0.170182 1.278895e-05
0.170432 1.275348e-05
0.170682 1.271218e-05
0.170932 1.266508e-05
0.171182 1.261222e-05
0.171432 1.255363e-05
0.171682 1.248935e-05
0.171932 1.241941e-05
0.172182 1.234385e-05
0.172432 1.226272e-05
0.172682 1.217607e-05
0.172932 1.208393e-05
0.173182 1.198637e-05
0.173432 1.188342e-05
0.173682 1.177516e-05
0.173932 1.166163e-05
0.174182 1.154289e-05
0.174432 1.141901e-05
0.174682 1.129004e-05
0.174932 1.115606e-05
0.175182 1.101712e-05
0.175432 1.087331e-05
0.175682 1.072469e-05
0.175932 1.057132e-05
0.176182 1.041330e-05
0.176432 1.025070e-05
0.176682 1.008359e-05
0.176932 9.912052e-06
0.177182 9.736174e-06
0.177432 9.556040e-06
0.177682 9.371733e-06
0.177932 9.183342e-06
0.178182 8.990955e-06
0.178432 8.794664e-06
0.178682 8.594561e-06
0.178932 8.390739e-06
0.179182 8.183293e-06
0.179432 7.972320e-06
0.179682 7.757918e-06
0.179932 7.540186e-06
0.180182 7.319225e-06
0.180432 7.095135e-06
0.180682 6.868019e-06
0.180932 6.637983e-06
0.181182 6.405129e-06
0.181432 6.169566e-06
0.181682 5.931398e-06
0.181932 5.690735e-06
0.182182 5.447685e-06
0.182432 5.202358e-06
0.182682 4.954863e-06
0.182932 4.705312e-06
0.183182 4.453817e-06
0.183432 4.200491e-06
0.183682 3.945445e-06
0.183932 3.688794e-06
0.184182 3.430651e-06
0.184432 3.171132e-06
0.184682 2.910350e-06
0.184932 2.648421e-06
0.185182 2.385460e-06
0.185432 2.121583e-06
0.185682 1.856906e-06
0.185932 1.591544e-06
0.186182 1.325613e-06
0.186432 1.059231e-06
0.186682 7.925114e-07
0.186932 5.255716e-07
0.187182 2.585270e-07
0.187432 -8.506641e-09
0.187682 -2.754140e-07
0.187932 -5.420800e-07
0.188182 -8.083897e-07
0.188432 -1.074229e-06