-0.138818 -1.185241e-05
-0.138568 -1.280387e-05
-0.138318 -1.374678e-05
-0.138068 -1.468073e-05
-0.137818 -1.560527e-05
-0.137568 -1.651999e-05
-0.137318 -1.742447e-05
-0.137068 -1.831829e-05
-0.136818 -1.920104e-05
-0.136568 -2.007234e-05
-0.136318 -2.093178e-05
-0.136068 -2.177898e-05
-0.135818 -2.261356e-05
-0.135568 -2.343514e-05
-0.135318 -2.424337e-05
-0.135068 -2.503788e-05
-0.134818 -2.581832e-05
-0.134568 -2.658435e-05
-0.134318 -2.733564e-05
-0.134068 -2.807185e-05
-0.133818 -2.879267e-05
-0.133568 -2.949779e-05
-0.133318 -3.018690e-05
-0.133068 -3.085972e-05
-0.132818 -3.151594e-05
-0.132568 -3.215531e-05
-0.132318 -3.277755e-05
-0.132068 -3.338240e-05
-0.131818 -3.396961e-05
-0.131568 -3.453894e-05
-0.131318 -3.509015e-05
-0.131068 -3.562304e-05
-0.130818 -3.613738e-05
-0.130568 -3.663297e-05
-0.130318 -3.710961e-05
-0.130068 -3.756712e-05
-0.129818 -3.800533e-05
-0.129568 -3.842408e-05
-0.129318 -3.882320e-05
-0.129068 -3.920255e-05
-0.128818 -3.956199e-05
-0.128568 -3.990141e-05
-0.128318 -4.022068e-05
-0.128068 -4.051970e-05
-0.127818 -4.079837e-05
-0.127568 -4.105661e-05
-0.127318 -4.129434e-05
-0.127068 -4.151150e-05
-0.126818 -4.170803e-05
-0.126568 -4.188389e-05
-0.126318 -4.203904e-05
-0.126068 -4.217345e-05
-0.125818 -4.228711e-05
-0.125568 -4.238002e-05
-0.125318 -4.245218e-05
-0.125068 -4.250360e-05
-0.124818 -4.253432e-05
-0.124568 -4.254436e-05
-0.124318 -4.253376e-05
-0.124068 -4.250259e-05
-0.123818 -4.245091e-05
-0.123568 -4.237879e-05
-0.123318 -4.228631e-05
-0.123068 -4.217358e-05
-0.122818 -4.204068e-05
-0.122568 -4.188773e-05
-0.122318 -4.171486e-05
-0.122068 -4.152219e-05
-0.121818 -4.130987e-05
-0.121568 -4.107804e-05
-0.121318 -4.082687e-05
-0.121068 -4.055651e-05
-0.120818 -4.026714e-05
-0.120568 -3.995895e-05
-0.120318 -3.963214e-05
-0.120068 -3.928690e-05
-0.119818 -3.892344e-05
-0.119568 -3.854198e-05
-0.119318 -3.814274e-05
-0.119068 -3.772597e-05
-0.118818 -3.729190e-05
-0.118568 -3.684079e-05
-0.118318 -3.637288e-05
-0.118068 -3.588845e-05
-0.117818 -3.538777e-05
-0.117568 -3.487111e-05
-0.117318 -3.433876e-05
-0.117068 -3.379102e-05
-0.116818 -3.322819e-05
-0.116568 -3.265056e-05
-0.116318 -3.205846e-05
-0.116068 -3.145220e-05
-0.115818 -3.083210e-05
-0.115568 -3.019850e-05
-0.115318 -2.955174e-05
-0.115068 -2.889215e-05
-0.114818 -2.822008e-05
-0.114568 -2.753589e-05
-0.114318 -2.683993e-05
-0.114068 -2.613256e-05
-0.113818 -2.541415e-05
-0.113568 -2.468507e-05
-0.113318 -2.394569e-05
-0.113068 -2.319640e-05
-0.112818 -2.243758e-05
-0.112568 -2.166961e-05
-0.112318 -2.089288e-05
-0.112068 -2.010779e-05
-0.111818 -1.931473e-05
-0.111568 -1.851411e-05
-0.111318 -1.770632e-05
-0.111068 -1.689176e-05
-0.110818 -1.607085e-05
-0.110568 -1.524400e-05
-0.110318 -1.441160e-05
-0.110068 -1.357408e-05
-0.109818 -1.273185e-05
-0.109568 -1.188533e-05
-0.109318 -1.103492e-05
-0.109068 -1.018104e-05
-0.108818 -9.324122e-06
-0.108568 -8.464571e-06
-0.108318 -7.602808e-06
-0.108068 -6.739250e-06
-0.107818 -5.874317e-06
-0.107568 -5.008424e-06
-0.107318 -4.141989e-06
-0.107068 -3.275428e-06
-0.106818 -2.409155e-06
-0.106568 -1.543586e-06
-0.106318 -6.791317e-07
-0.106068 1.837959e-07
-0.105818 1.044788e-06
-0.105568 1.903436e-06
-0.105318 2.759337e-06
-0.105068 3.612086e-06
-0.104818 4.461282e-06
-0.104568 5.306530e-06
-0.104318 6.147432e-06
-0.104068 6.983598e-06
-0.103818 7.814639e-06
-0.103568 8.640169e-06
-0.103318 9.459807e-06
-0.103068 1.027317e-05
-0.102818 1.107990e-05
-0.102568 1.187961e-05
-0.102318 1.267194e-05
-0.102068 1.345652e-05
-0.101818 1.423301e-05
-0.101568 1.500105e-05
-0.101318 1.576030e-05
-0.101068 1.651040e-05
-0.100818 1.725103e-05
-0.100568 1.798185e-05
-0.100318 1.870254e-05
-0.100068 1.941277e-05
-0.099818 2.011224e-05
-0.099568 2.080063e-05
-0.099318 2.147763e-05
-0.099068 2.214297e-05
-0.098818 2.279633e-05
-0.098568 2.343745e-05
-0.098318 2.406604e-05
-0.098068 2.468183e-05
-0.097818 2.528455e-05
-0.097568 2.587396e-05
-0.097318 2.644981e-05
-0.097068 2.701184e-05
-0.096818 2.755982e-05
-0.096568 2.809352e-05
-0.096318 2.861273e-05
-0.096068 2.911723e-05
-0.095818 2.960681e-05
-0.095568 3.008128e-05
-0.095318 3.054044e-05
-0.095068 3.098412e-05
-0.094818 3.141213e-05
-0.094568 3.182430e-05
-0.094318 3.222049e-05
-0.094068 3.260053e-05
-0.093818 3.296429e-05
-0.093568 3.331163e-05
-0.093318 3.364242e-05
-0.093068 3.395654e-05
-0.092818 3.425389e-05
-0.092568 3.453436e-05
-0.092318 3.479785e-05
-0.092068 3.504429e-05
-0.091818 3.527358e-05
-0.091568 3.548568e-05
-0.091318 3.568050e-05
-0.091068 3.585801e-05
-0.090818 3.601815e-05
-0.090568 3.616090e-05
-0.090318 3.628622e-05
-0.090068 3.639409e-05
-0.089818 3.648451e-05
-0.089568 3.655747e-05
-0.089318 3.661298e-05
-0.089068 3.665106e-05
-0.088818 3.667172e-05
-0.088568 3.667499e-05
-0.088318 3.666092e-05
-0.088068 3.662956e-05
-0.087818 3.658095e-05
-0.087568 3.651517e-05
-0.087318 3.643228e-05
-0.087068 3.633236e-05
-0.086818 3.621550e-05
-0.086568 3.608179e-05
-0.086318 3.593135e-05
-0.086068 3.576427e-05
-0.085818 3.558068e-05
-0.085568 3.538070e-05
-0.085318 3.516447e-05
-0.085068 3.493212e-05
-0.084818 3.468381e-05
-0.084568 3.441969e-05
-0.084318 3.413992e-05
-0.084068 3.384467e-05
-0.083818 3.353413e-05
-0.083568 3.320846e-05
-0.083318 3.286786e-05
-0.083068 3.251254e-05
-0.082818 3.214268e-05
-0.082568 3.175850e-05
-0.082318 3.136022e-05
-0.082068 3.094806e-05
-0.081818 3.052225e-05
-0.081568 3.008301e-05
-0.081318 2.963060e-05
-0.081068 2.916525e-05
-0.080818 2.868722e-05
-0.080568 2.819676e-05
-0.080318 2.769414e-05
-0.080068 2.717962e-05
-0.079818 2.665347e-05
-0.079568 2.611598e-05
-0.079318 2.556741e-05
-0.079068 2.500806e-05
-0.078818 2.443822e-05
-0.078568 2.385819e-05
-0.078318 2.326825e-05
-0.078068 2.266873e-05
-0.077818 2.205991e-05
-0.077568 2.144211e-05
-0.077318 2.081565e-05
-0.077068 2.018084e-05
-0.076818 1.953801e-05
-0.076568 1.888747e-05
-0.076318 1.822955e-05
-0.076068 1.756459e-05
-0.075818 1.689291e-05
-0.075568 1.621484e-05
-0.075318 1.553073e-05
-0.075068 1.484091e-05
-0.074818 1.414572e-05
-0.074568 1.344551e-05
-0.074318 1.274061e-05
-0.074068 1.203138e-05
-0.073818 1.131815e-05
-0.073568 1.060128e-05
-0.073318 9.881109e-06
-0.073068 9.157991e-06
-0.072818 8.432274e-06
-0.072568 7.704307e-06
-0.072318 6.974441e-06
-0.072068 6.243026e-06
-0.071818 5.510410e-06
-0.071568 4.776945e-06
-0.071318 4.042978e-06
-0.071068 3.308859e-06
-0.070818 2.574935e-06
-0.070568 1.841554e-06
-0.070318 1.109061e-06
-0.070068 3.778005e-07
-0.069818 -3.518843e-07
-0.069568 -1.079652e-06
-0.069318 -1.805162e-06
-0.069068 -2.528076e-06
-0.068818 -3.248060e-06
-0.068568 -3.964779e-06
-0.068318 -4.677901e-06
-0.068068 -5.387098e-06
-0.067818 -6.092043e-06
-0.067568 -6.792413e-06
-0.067318 -7.487887e-06
-0.067068 -8.178148e-06
-0.066818 -8.862881e-06
-0.066568 -9.541776e-06
-0.066318 -1.021453e-05
-0.066068 -1.088082e-05
-0.065818 -1.154037e-05
-0.065568 -1.219288e-05
-0.065318 -1.283804e-05
-0.065068 -1.347558e-05
-0.064818 -1.410521e-05
-0.064568 -1.472665e-05
-0.064318 -1.533963e-05
-0.064068 -1.594387e-05
-0.063818 -1.653912e-05
-0.063568 -1.712510e-05
-0.063318 -1.770157e-05
-0.063068 -1.826828e-05
-0.062818 -1.882497e-05
-0.062568 -1.937142e-05
-0.062318 -1.990738e-05
-0.062068 -2.043262e-05
-0.061818 -2.094693e-05
-0.061568 -2.145009e-05
-0.061318 -2.194187e-05
-0.061068 -2.242209e-05
-0.060818 -2.289053e-05
-0.060568 -2.334701e-05
-0.060318 -2.379133e-05
-0.060068 -2.422331e-05
-0.059818 -2.464279e-05
-0.059568 -2.504958e-05
-0.059318 -2.544352e-05
-0.059068 -2.582447e-05
-0.058818 -2.619227e-05
-0.058568 -2.654677e-05
-0.058318 -2.688784e-05
-0.058068 -2.721536e-05
-0.057818 -2.752918e-05
-0.057568 -2.782921e-05
-0.057318 -2.811533e-05
-0.057068 -2.838743e-05
-0.056818 -2.864542e-05
-0.056568 -2.888922e-05
-0.056318 -2.911873e-05
-0.056068 -2.933388e-05
-0.055818 -2.953461e-05
-0.055568 -2.972085e-05
-0.055318 -2.989255e-05
-0.055068 -3.004966e-05
-0.054818 -3.019214e-05
-0.054568 -3.031995e-05
-0.054318 -3.043308e-05
-0.054068 -3.053149e-05
-0.053818 -3.061517e-05
-0.053568 -3.068413e-05
-0.053318 -3.073836e-05
-0.053068 -3.077786e-05
-0.052818 -3.080266e-05
-0.052568 -3.081278e-05
-0.052318 -3.080824e-05
-0.052068 -3.078908e-05
-0.051818 -3.075534e-05
-0.051568 -3.070708e-05
-0.051318 -3.064434e-05
-0.051068 -3.056719e-05
-0.050818 -3.047569e-05
-0.050568 -3.036994e-05
-0.050318 -3.024999e-05
-0.050068 -3.011595e-05
-0.049818 -2.996791e-05
-0.049568 -2.980597e-05
-0.049318 -2.963024e-05
-0.049068 -2.944083e-05
-0.048818 -2.923787e-05
-0.048568 -2.902147e-05
-0.048318 -2.879177e-05
-0.048068 -2.854891e-05
-0.047818 -2.829303e-05
-0.047568 -2.802429e-05
-0.047318 -2.774283e-05
-0.047068 -2.744882e-05
-0.046818 -2.714243e-05
-0.046568 -2.682382e-05
-0.046318 -2.649318e-05
-0.046068 -2.615068e-05
-0.045818 -2.579652e-05
-0.045568 -2.543088e-05
-0.045318 -2.505397e-05
-0.045068 -2.466599e-05
-0.044818 -2.426714e-05
-0.044568 -2.385764e-05
-0.044318 -2.343770e-05
-0.044068 -2.300754e-05
-0.043818 -2.256739e-05
-0.043568 -2.211747e-05
-0.043318 -2.165803e-05
-0.043068 -2.118929e-05
-0.042818 -2.071151e-05
-0.042568 -2.022491e-05
-0.042318 -1.972976e-05
-0.042068 -1.922629e-05
-0.041818 -1.871478e-05
-0.041568 -1.819547e-05
-0.041318 -1.766862e-05
-0.041068 -1.713451e-05
-0.040818 -1.659340e-05
-0.040568 -1.604555e-05
-0.040318 -1.549123e-05
-0.040068 -1.493074e-05
-0.039818 -1.436433e-05
-0.039568 -1.379229e-05
-0.039318 -1.321490e-05
-0.039068 -1.263244e-05
-0.038818 -1.204520e-05
-0.038568 -1.145346e-05
-0.038318 -1.085751e-05
-0.038068 -1.025764e-05
-0.037818 -9.654134e-06
-0.037568 -9.047289e-06
-0.037318 -8.437395e-06
-0.037068 -7.824745e-06
-0.036818 -7.209631e-06
-0.036568 -6.592348e-06
-0.036318 -5.973188e-06
-0.036068 -5.352447e-06
-0.035818 -4.730418e-06
-0.035568 -4.107396e-06
-0.035318 -3.483674e-06
-0.035068 -2.859547e-06
-0.034818 -2.235306e-06
-0.034568 -1.611246e-06
-0.034318 -9.876564e-07
-0.034068 -3.648293e-07
-0.033818 2.569459e-07
-0.033568 8.773804e-07
-0.033318 1.496187e-06
-0.033068 2.113080e-06
-0.032818 2.727774e-06
-0.032568 3.339988e-06
-0.032318 3.949439e-06
-0.032068 4.555850e-06
-0.031818 5.158944e-06
-0.031568 5.758445e-06
-0.031318 6.354081e-06
-0.031068 6.945583e-06
-0.030818 7.532682e-06
-0.030568 8.115115e-06
-0.030318 8.692619e-06
-0.030068 9.264935e-06
-0.029818 9.831808e-06
-0.029568 1.039298e-05
-0.029318 1.094821e-05
-0.029068 1.149725e-05
-0.028818 1.203985e-05
-0.028568 1.257578e-05
-0.028318 1.310479e-05
-0.028068 1.362666e-05
-0.027818 1.414117e-05
-0.027568 1.464807e-05
-0.027318 1.514717e-05
-0.027068 1.563823e-05
-0.026818 1.612105e-05
-0.026568 1.659542e-05
-0.026318 1.706114e-05
-0.026068 1.751801e-05
-0.025818 1.796583e-05
-0.025568 1.840442e-05
-0.025318 1.883360e-05
-0.025068 1.925317e-05
-0.024818 1.966297e-05
-0.024568 2.006283e-05
-0.024318 2.045259e-05
-0.024068 2.083207e-05
-0.023818 2.120114e-05
-0.023568 2.155964e-05
-0.023318 2.190742e-05
-0.023068 2.224434e-05
-0.022818 2.257028e-05
-0.022568 2.288511e-05
-0.022318 2.318870e-05
-0.022068 2.348094e-05
-0.021818 2.376170e-05
-0.021568 2.403090e-05
-0.021318 2.428843e-05
-0.021068 2.453419e-05
-0.020818 2.476810e-05
-0.020568 2.499006e-05
-0.020318 2.520002e-05
-0.020068 2.539788e-05
-0.019818 2.558359e-05
-0.019568 2.575709e-05
-0.019318 2.591832e-05
-0.019068 2.606724e-05
-0.018818 2.620380e-05
-0.018568 2.632796e-05
-0.018318 2.643970e-05
-0.018068 2.653898e-05
-0.017818 2.662580e-05
-0.017568 2.670013e-05
-0.017318 2.676197e-05
-0.017068 2.681132e-05
-0.016818 2.684818e-05
-0.016568 2.687256e-05
-0.016318 2.688448e-05
-0.016068 2.688395e-05
-0.015818 2.687102e-05
-0.015568 2.684570e-05
-0.015318 2.680803e-05
-0.015068 2.675807e-05
-0.014818 2.669586e-05
-0.014568 2.662146e-05
-0.014318 2.653492e-05
-0.014068 2.643632e-05
-0.013818 2.632572e-05
-0.013568 2.620321e-05
-0.013318 2.606886e-05
-0.013068 2.592276e-05
-0.012818 2.576501e-05
-0.012568 2.559571e-05
-0.012318 2.541495e-05
-0.012068 2.522286e-05
-0.011818 2.501953e-05
-0.011568 2.480509e-05
-0.011318 2.457967e-05
-0.011068 2.434338e-05
-0.010818 2.409637e-05
-0.010568 2.383877e-05
-0.010318 2.357073e-05
-0.010068 2.329238e-05
-0.009818 2.300389e-05
-0.009568 2.270541e-05
-0.009318 2.239710e-05
-0.009068 2.207911e-05
-0.008818 2.175163e-05
-0.008568 2.141482e-05
-0.008318 2.106886e-05
-0.008068 2.071392e-05
-0.007818 2.035020e-05
-0.007568 1.997788e-05
-0.007318 1.959715e-05
-0.007068 1.920821e-05
-0.006818 1.881125e-05
-0.006568 1.840647e-05
-0.006318 1.799408e-05
-0.006068 1.757429e-05
-0.005818 1.714730e-05
-0.005568 1.671334e-05
-0.005318 1.627261e-05
-0.005068 1.582533e-05
-0.004818 1.537173e-05
-0.004568 1.491203e-05
-0.004318 1.444646e-05
-0.004068 1.397523e-05
-0.003818 1.349859e-05
-0.003568 1.301677e-05
-0.003318 1.252999e-05
-0.003068 1.203851e-05
-0.002818 1.154254e-05
-0.002568 1.104234e-05
-0.002318 1.053813e-05
-0.002068 1.003018e-05
-0.001818 9.518708e-06
-0.001568 9.003970e-06
-0.001318 8.486209e-06
-0.001068 7.965670e-06
-0.000818 7.442601e-06
-0.000568 6.917248e-06
-0.000318 6.389859e-06
-0.000068 5.860683e-06
0.000182 5.329968e-06
0.000432 4.797963e-06
0.000682 4.264916e-06
0.000932 3.731076e-06
0.001182 3.196691e-06
0.001432 2.662010e-06
0.001682 2.127279e-06
0.001932 1.592748e-06
0.002182 1.058661e-06
0.002432 5.252647e-07
0.002682 -7.195709e-09
0.002932 -5.384765e-07
0.003182 -1.068335e-06
0.003432 -1.596529e-06
0.003682 -2.122818e-06
0.003932 -2.646963e-06
0.004182 -3.168728e-06
0.004432 -3.687875e-06
0.004682 -4.204172e-06
0.004932 -4.717384e-06
0.005182 -5.227283e-06
0.005432 -5.733640e-06
0.005682 -6.236229e-06
0.005932 -6.734825e-06
0.006182 -7.229207e-06
0.006432 -7.719157e-06
0.006682 -8.204456e-06
0.006932 -8.684891e-06
0.007182 -9.160251e-06
0.007432 -9.630328e-06
0.007682 -1.009491e-05
0.007932 -1.055381e-05
0.008182 -1.100681e-05
0.008432 -1.145373e-05
0.008682 -1.189436e-05
0.008932 -1.232852e-05
0.009182 -1.275602e-05
0.009432 -1.317669e-05
0.009682 -1.359033e-05
0.009932 -1.399678e-05
0.010182 -1.439585e-05
0.010432 -1.478739e-05
0.010682 -1.517123e-05
0.010932 -1.554721e-05
0.011182 -1.591517e-05
0.011432 -1.627495e-05
0.011682 -1.662642e-05
0.011932 -1.696942e-05
0.012182 -1.730382e-05
0.012432 -1.762947e-05
0.012682 -1.794626e-05
0.012932 -1.825404e-05
0.013182 -1.855270e-05
0.013432 -1.884212e-05
0.013682 -1.912219e-05
0.013932 -1.939279e-05
0.014182 -1.965382e-05
0.014432 -1.990519e-05
0.014682 -2.014679e-05
0.014932 -2.037853e-05
0.015182 -2.060033e-05
0.015432 -2.081211e-05
0.015682 -2.101379e-05
0.015932 -2.120530e-05
0.016182 -2.138657e-05
0.016432 -2.155754e-05
0.016682 -2.171816e-05
0.016932 -2.186836e-05
0.017182 -2.200811e-05
0.017432 -2.213736e-05
0.017682 -2.225608e-05
0.017932 -2.236422e-05
0.018182 -2.246176e-05
0.018432 -2.254869e-05
0.018682 -2.262498e-05
0.018932 -2.269062e-05
0.019182 -2.274559e-05
0.019432 -2.278991e-05
0.019682 -2.282357e-05
0.019932 -2.284657e-05
0.020182 -2.285893e-05
0.020432 -2.286066e-05
0.020682 -2.285179e-05
0.020932 -2.283234e-05
0.021182 -2.280234e-05
0.021432 -2.276183e-05
0.021682 -2.271085e-05
0.021932 -2.264944e-05
0.022182 -2.257765e-05
0.022432 -2.249554e-05
0.022682 -2.240317e-05
0.022932 -2.230059e-05
0.023182 -2.218788e-05
0.023432 -2.206512e-05
0.023682 -2.193237e-05
0.023932 -2.178971e-05
0.024182 -2.163725e-05
0.024432 -2.147505e-05
0.024682 -2.130323e-05
0.024932 -2.112187e-05
0.025182 -2.093109e-05
0.025432 -2.073098e-05
0.025682 -2.052166e-05
0.025932 -2.030324e-05
0.026182 -2.007584e-05
0.026432 -1.983959e-05
0.026682 -1.959460e-05
0.026932 -1.934102e-05
0.027182 -1.907897e-05
0.027432 -1.880859e-05
0.027682 -1.853003e-05
0.027932 -1.824342e-05
0.028182 -1.794892e-05
0.028432 -1.764667e-05
0.028682 -1.733683e-05
0.028932 -1.701956e-05
0.029182 -1.669502e-05
0.029432 -1.636337e-05
0.029682 -1.602477e-05
0.029932 -1.567940e-05
0.030182 -1.532743e-05
0.030432 -1.496903e-05
0.030682 -1.460438e-05
0.030932 -1.423366e-05
0.031182 -1.385705e-05
0.031432 -1.347474e-05
0.031682 -1.308690e-05
0.031932 -1.269374e-05
0.032182 -1.229544e-05
0.032432 -1.189219e-05
0.032682 -1.148419e-05
0.032932 -1.107164e-05
0.033182 -1.065472e-05
0.033432 -1.023365e-05
0.033682 -9.808619e-06
0.033932 -9.379832e-06
0.034182 -8.947493e-06
0.034432 -8.511806e-06
0.034682 -8.072978e-06
0.034932 -7.631214e-06
0.035182 -7.186723e-06
0.035432 -6.739713e-06
0.035682 -6.290394e-06
0.035932 -5.838975e-06
0.036182 -5.385667e-06
0.036432 -4.930680e-06
0.036682 -4.474225e-06
0.036932 -4.016514e-06
0.037182 -3.557758e-06
0.037432 -3.098168e-06
0.037682 -2.637956e-06
0.037932 -2.177334e-06
0.038182 -1.716511e-06
0.038432 -1.255699e-06
0.038682 -7.951085e-07
0.038932 -3.349479e-07
0.039182 1.245733e-07
0.039432 5.832468e-07
0.039682 1.040865e-06
0.039932 1.497222e-06
0.040182 1.952112e-06
0.040432 2.405330e-06
0.040682 2.856674e-06
0.040932 3.305941e-06
0.041182 3.752932e-06
0.041432 4.197446e-06
0.041682 4.639286e-06
0.041932 5.078256e-06
0.042182 5.514163e-06
0.042432 5.946814e-06
0.042682 6.376018e-06
0.042932 6.801586e-06
0.043182 7.223333e-06
0.043432 7.641073e-06
0.043682 8.054626e-06
0.043932 8.463810e-06
0.044182 8.868448e-06
0.044432 9.268366e-06
0.044682 9.663391e-06
0.044932 1.005335e-05
0.045182 1.043808e-05
0.045432 1.081742e-05
0.045682 1.119120e-05
0.045932 1.155926e-05
0.046182 1.192145e-05
0.046432 1.227762e-05
0.046682 1.262761e-05
0.046932 1.297128e-05
0.047182 1.330848e-05
0.047432 1.363908e-05
0.047682 1.396293e-05
0.047932 1.427991e-05
0.048182 1.458988e-05
0.048432 1.489272e-05
0.048682 1.518830e-05
0.048932 1.547650e-05
0.049182 1.575721e-05
0.049432 1.603031e-05
0.049682 1.629570e-05
0.049932 1.655327e-05
0.050182 1.680291e-05
0.050432 1.704454e-05
0.050682 1.727805e-05
0.050932 1.750336e-05
0.051182 1.772038e-05
0.051432 1.792903e-05
0.051682 1.812923e-05
0.051932 1.832090e-05
0.052182 1.850399e-05
0.052432 1.867841e-05
0.052682 1.884411e-05
0.052932 1.900103e-05
0.053182 1.914911e-05
0.053432 1.928831e-05
0.053682 1.941859e-05
0.053932 1.953989e-05
0.054182 1.965218e-05
0.054432 1.975544e-05
0.054682 1.984962e-05
0.054932 1.993471e-05
0.055182 2.001068e-05
0.055432 2.007752e-05
0.055682 2.013522e-05
0.055932 2.018377e-05
0.056182 2.022315e-05
0.056432 2.025338e-05
0.056682 2.027446e-05
0.056932 2.028640e-05
0.057182 2.028920e-05
0.057432 2.028289e-05
0.057682 2.026749e-05
0.057932 2.024302e-05
0.058182 2.020950e-05
0.058432 2.016698e-05
0.058682 2.011549e-05
0.058932 2.005507e-05
0.059182 1.998577e-05
0.059432 1.990762e-05
0.059682 1.982070e-05
0.059932 1.972505e-05
0.060182 1.962073e-05
0.060432 1.950781e-05
0.060682 1.938636e-05
0.060932 1.925644e-05
0.061182 1.911813e-05
0.061432 1.897152e-05
0.061682 1.881668e-05
0.061932 1.865370e-05
0.062182 1.848267e-05
0.062432 1.830368e-05
0.062682 1.811682e-05
0.062932 1.792221e-05
0.063182 1.771994e-05
0.063432 1.751012e-05
0.063682 1.729285e-05
0.063932 1.706825e-05
0.064182 1.683644e-05
0.064432 1.659753e-05
0.064682 1.635165e-05
0.064932 1.609892e-05
0.065182 1.583946e-05
0.065432 1.557342e-05
0.065682 1.530091e-05
0.065932 1.502208e-05
0.066182 1.473706e-05
0.066432 1.444600e-05
0.066682 1.414904e-05
0.066932 1.384632e-05
0.067182 1.353799e-05
0.067432 1.322420e-05
0.067682 1.290510e-05
0.067932 1.258085e-05
0.068182 1.225160e-05
0.068432 1.191752e-05
0.068682 1.157875e-05
0.068932 1.123547e-05
0.069182 1.088783e-05
0.069432 1.053601e-05
0.069682 1.018016e-05
0.069932 9.820463e-06
0.070182 9.457077e-06
0.070432 9.090178e-06
0.070682 8.719937e-06
0.070932 8.346527e-06
0.071182 7.970122e-06
0.071432 7.590899e-06
0.071682 7.209032e-06
0.071932 6.824700e-06
0.072182 6.438078e-06
0.072432 6.049347e-06
0.072682 5.658685e-06
0.072932 5.266272e-06
0.073182 4.872286e-06
0.073432 4.476910e-06
0.073682 4.080323e-06
0.073932 3.682705e-06
0.074182 3.284238e-06
0.074432 2.885103e-06
0.074682 2.485479e-06
0.074932 2.085549e-06
0.075182 1.685491e-06
0.075432 1.285487e-06
0.075682 8.857153e-07
0.075932 4.863559e-07
0.076182 8.758708e-08
0.076432 -3.104130e-07
0.076682 -7.074671e-07
0.076932 -1.103399e-06
0.077182 -1.498032e-06
0.077432 -1.891192e-06
0.077682 -2.282706e-06
0.077932 -2.672401e-06
0.078182 -3.060104e-06
0.078432 -3.445647e-06
0.078682 -3.828860e-06
0.078932 -4.209575e-06
0.079182 -4.587627e-06
0.079432 -4.962851e-06
0.079682 -5.335084e-06
0.079932 -5.704165e-06
0.080182 -6.069933e-06
0.080432 -6.432233e-06
0.080682 -6.790907e-06
0.080932 -7.145802e-06
0.081182 -7.496765e-06
0.081432 -7.843648e-06
0.081682 -8.186302e-06
0.081932 -8.524582e-06
0.082182 -8.858344e-06
0.082432 -9.187448e-06
0.082682 -9.511755e-06
0.082932 -9.831129e-06
0.083182 -1.014544e-05
0.083432 -1.045454e-05
0.083682 -1.075833e-05
0.083932 -1.105666e-05
0.084182 -1.134941e-05
0.084432 -1.163647e-05
0.084682 -1.191771e-05
0.084932 -1.219303e-05
0.085182 -1.246231e-05
0.085432 -1.272543e-05
0.085682 -1.298230e-05
0.085932 -1.323281e-05
0.086182 -1.347687e-05
0.086432 -1.371436e-05
0.086682 -1.394521e-05
0.086932 -1.416932e-05
0.087182 -1.438660e-05
0.087432 -1.459697e-05
0.087682 -1.480035e-05
0.087932 -1.499666e-05
0.088182 -1.518582e-05
0.088432 -1.536777e-05
0.088682 -1.554243e-05
0.088932 -1.570975e-05
0.089182 -1.586966e-05
0.089432 -1.602211e-05
0.089682 -1.616703e-05
0.089932 -1.630439e-05
0.090182 -1.643413e-05
0.090432 -1.655620e-05
0.090682 -1.667058e-05
0.090932 -1.677723e-05
0.091182 -1.687610e-05
0.091432 -1.696717e-05
0.091682 -1.705042e-05
0.091932 -1.712582e-05
0.092182 -1.719336e-05
0.092432 -1.725302e-05
0.092682 -1.730478e-05
0.092932 -1.734864e-05
0.093182 -1.738460e-05
0.093432 -1.741265e-05
0.093682 -1.743279e-05
0.093932 -1.744504e-05
0.094182 -1.744940e-05
0.094432 -1.744589e-05
0.094682 -1.743451e-05
0.094932 -1.741530e-05
0.095182 -1.738827e-05
0.095432 -1.735346e-05
0.095682 -1.731088e-05
0.095932 -1.726058e-05
0.096182 -1.720260e-05
0.096432 -1.713697e-05
0.096682 -1.706373e-05
0.096932 -1.698294e-05
0.097182 -1.689464e-05
0.097432 -1.679889e-05
0.097682 -1.669574e-05
0.097932 -1.658526e-05
0.098182 -1.646750e-05
0.098432 -1.634254e-05
0.098682 -1.621045e-05
0.098932 -1.607129e-05
0.099182 -1.592513e-05
0.099432 -1.577207e-05
0.099682 -1.561218e-05
0.099932 -1.544554e-05
0.100182 -1.527225e-05
0.100432 -1.509238e-05
0.100682 -1.490604e-05
0.100932 -1.471332e-05
0.101182 -1.451432e-05
0.101432 -1.430913e-05
0.101682 -1.409786e-05
0.101932 -1.388062e-05
0.102182 -1.365751e-05
0.102432 -1.342865e-05
0.102682 -1.319414e-05
0.102932 -1.295410e-05
0.103182 -1.270865e-05
0.103432 -1.245791e-05
0.103682 -1.220200e-05
0.103932 -1.194105e-05
0.104182 -1.167517e-05
0.104432 -1.140449e-05
0.104682 -1.112916e-05
0.104932 -1.084929e-05
0.105182 -1.056502e-05
0.105432 -1.027648e-05
0.105682 -9.983813e-06
0.105932 -9.687155e-06
0.106182 -9.386645e-06
0.106432 -9.082423e-06
0.106682 -8.774631e-06
0.106932 -8.463413e-06
0.107182 -8.148914e-06
0.107432 -7.831279e-06
0.107682 -7.510656e-06
0.107932 -7.187192e-06
0.108182 -6.861036e-06
0.108432 -6.532339e-06
0.108682 -6.201250e-06
0.108932 -5.867922e-06
0.109182 -5.532506e-06
0.109432 -5.195155e-06
0.109682 -4.856022e-06
0.109932 -4.515263e-06
0.110182 -4.173029e-06
0.110432 -3.829477e-06
0.110682 -3.484761e-06
0.110932 -3.139036e-06
0.111182 -2.792458e-06
0.111432 -2.445181e-06
0.111682 -2.097361e-06
0.111932 -1.749153e-06
0.112182 -1.400713e-06
0.112432 -1.052195e-06
0.112682 -7.037535e-07
0.112932 -3.555435e-07
0.113182 -7.718546e-09
0.113432 3.395679e-07
0.113682 6.861630e-07
0.113932 1.031914e-06
0.114182 1.376671e-06
0.114432 1.720280e-06
0.114682 2.062594e-06
0.114932 2.403463e-06
0.115182 2.742737e-06
0.115432 3.080271e-06
0.115682 3.415918e-06
0.115932 3.749532e-06
0.116182 4.080970e-06
0.116432 4.410089e-06
0.116682 4.736749e-06
0.116932 5.060808e-06
0.117182 5.382128e-06
0.117432 5.700572e-06
0.117682 6.016005e-06
0.117932 6.328293e-06
0.118182 6.637302e-06
0.118432 6.942904e-06
0.118682 7.244969e-06
0.118932 7.543369e-06
0.119182 7.837980e-06
0.119432 8.128679e-06
0.119682 8.415344e-06
0.119932 8.697856e-06
0.120182 8.976098e-06
0.120432 9.249954e-06
0.120682 9.519313e-06
0.120932 9.784062e-06
0.121182 1.004409e-05
0.121432 1.029930e-05
0.121682 1.054958e-05
0.121932 1.079484e-05
0.122182 1.103496e-05
0.122432 1.126986e-05
0.122682 1.149945e-05
0.122932 1.172362e-05
0.123182 1.194229e-05
0.123432 1.215538e-05
0.123682 1.236280e-05
0.123932 1.256447e-05
0.124182 1.276031e-05
0.124432 1.295025e-05
0.124682 1.313421e-05
0.124932 1.331213e-05
0.125182 1.348393e-05
0.125432 1.364955e-05
0.125682 1.380893e-05
0.125932 1.396201e-05
0.126182 1.410873e-05
0.126432 1.424905e-05
0.126682 1.438291e-05
0.126932 1.451026e-05
0.127182 1.463106e-05
0.127432 1.474528e-05
0.127682 1.485286e-05
0.127932 1.495378e-05
0.128182 1.504801e-05
0.128432 1.513551e-05
0.128682 1.521626e-05
0.128932 1.529023e-05
0.129182 1.535741e-05
0.129432 1.541777e-05
0.129682 1.547131e-05
0.129932 1.551802e-05
0.130182 1.555788e-05
0.130432 1.559088e-05
0.130682 1.561704e-05
0.130932 1.563635e-05
0.131182 1.564881e-05
0.131432 1.565443e-05
0.131682 1.565322e-05
0.131932 1.564519e-05
0.132182 1.563037e-05
0.132432 1.560876e-05
0.132682 1.558039e-05
0.132932 1.554529e-05
0.133182 1.550349e-05
0.133432 1.545500e-05
0.133682 1.539988e-05
0.133932 1.533815e-05
0.134182 1.526985e-05
0.134432 1.519503e-05
0.134682 1.511373e-05
0.134932 1.502600e-05
0.135182 1.493188e-05
0.135432 1.483144e-05
0.135682 1.472472e-05
0.135932 1.461179e-05
0.136182 1.449271e-05
0.136432 1.436753e-05
0.136682 1.423634e-05
0.136932 1.409918e-05
0.137182 1.395615e-05
0.137432 1.380730e-05
0.137682 1.365272e-05
0.137932 1.349248e-05
0.138182 1.332667e-05
0.138432 1.315537e-05
0.138682 1.297866e-05
0.138932 1.279663e-05
0.139182 1.260937e-05
0.139432 1.241697e-05
0.139682 1.221953e-05
0.139932 1.201713e-05
0.140182 1.180989e-05
0.140432 1.159790e-05
0.140682 1.138126e-05
0.140932 1.116007e-05
0.141182 1.093445e-05
0.141432 1.070448e-05
0.141682 1.047030e-05
0.141932 1.023200e-05
0.142182 9.989699e-06
0.142432 9.743508e-06
0.142682 9.493544e-06
0.142932 9.239923e-06
0.143182 8.982763e-06
0.143432 8.722182e-06
0.143682 8.458301e-06
0.143932 8.191242e-06
0.144182 7.921127e-06
0.144432 7.648081e-06
0.144682 7.372228e-06
0.144932 7.093694e-06
0.145182 6.812607e-06
0.145432 6.529093e-06
0.145682 6.243281e-06
0.145932 5.955301e-06
0.146182 5.665283e-06
0.146432 5.373357e-06
0.146682 5.079654e-06
0.146932 4.784306e-06
0.147182 4.487446e-06
0.147432 4.189206e-06
0.147682 3.889719e-06
0.147932 3.589118e-06
0.148182 3.287537e-06
0.148432 2.985110e-06
0.148682 2.681969e-06
0.148932 2.378250e-06
0.149182 2.074085e-06
0.149432 1.769609e-06
0.149682 1.464956e-06
0.149932 1.160258e-06
0.150182 8.556486e-07
0.150432 5.512615e-07
0.150682 2.472290e-07
0.150932 -5.631696e-08
0.151182 -3.592445e-07
0.151432 -6.614225e-07
0.151682 -9.627203e-07
0.151932 -1.263008e-06
0.152182 -1.562156e-06
0.152432 -1.860036e-06
0.152682 -2.156521e-06
0.152932 -2.451483e-06
0.153182 -2.744796e-06
0.153432 -3.036336e-06
0.153682 -3.325979e-06
0.153932 -3.613600e-06
0.154182 -3.899080e-06
0.154432 -4.182296e-06
0.154682 -4.463130e-06
0.154932 -4.741464e-06
0.155182 -5.017180e-06
0.155432 -5.290163e-06
0.155682 -5.560299e-06
0.155932 -5.827476e-06
0.156182 -6.091582e-06
0.156432 -6.352508e-06
0.156682 -6.610146e-06
0.156932 -6.864389e-06
0.157182 -7.115133e-06
0.157432 -7.362275e-06
0.157682 -7.605714e-06
0.157932 -7.845350e-06
0.158182 -8.081087e-06
0.158432 -8.312828e-06
0.158682 -8.540480e-06
0.158932 -8.763951e-06
0.159182 -8.983151e-06
0.159432 -9.197993e-06
0.159682 -9.408391e-06
0.159932 -9.614262e-06
0.160182 -9.815523e-06
0.160432 -1.001210e-05
0.160682 -1.020391e-05
0.160932 -1.039088e-05
0.161182 -1.057293e-05
0.161432 -1.075001e-05
0.161682 -1.092203e-05
0.161932 -1.108894e-05
0.162182 -1.125066e-05
0.162432 -1.140715e-05
0.162682 -1.155834e-05
0.162932 -1.170417e-05
0.163182 -1.184460e-05
0.163432 -1.197956e-05
0.163682 -1.210901e-05
0.163932 -1.223292e-05
0.164182 -1.235122e-05
0.164432 -1.246388e-05
0.164682 -1.257086e-05
0.164932 -1.267213e-05
0.165182 -1.276765e-05
0.165432 -1.285739e-05
0.165682 -1.294133e-05
0.165932 -1.301943e-05
0.166182 -1.309167e-05
0.166432 -1.315803e-05
0.166682 -1.321850e-05
0.166932 -1.327306e-05
0.167182 -1.332169e-05
0.167432 -1.336439e-05
0.167682 -1.340115e-05
0.167932 -1.343196e-05
0.168182 -1.345682e-05
0.168432 -1.347573e-05
0.168682 -1.348870e-05
0.168932 -1.349572e-05
0.169182 -1.349681e-05
0.169432 -1.349197e-05
0.169682 -1.348122e-05
0.169932 -1.346458e-05
0.170182 -1.344206e-05
0.170432 -1.341368e-05
0.170682 -1.337947e-05
0.170932 -1.333946e-05
0.171182 -1.329366e-05
0.171432 -1.324211e-05
0.171682 -1.318484e-05
0.171932 -1.312190e-05
0.172182 -1.305330e-05
0.172432 -1.297911e-05
0.172682 -1.289935e-05
0.172932 -1.281408e-05
0.173182 -1.272333e-05
0.173432 -1.262717e-05
0.173682 -1.252564e-05
0.173932 -1.241879e-05
0.174182 -1.230668e-05
0.174432 -1.218937e-05
0.174682 -1.206693e-05
0.174932 -1.193940e-05
0.175182 -1.180686e-05
0.175432 -1.166937e-05
0.175682 -1.152701e-05
0.175932 -1.137984e-05
0.176182 -1.122793e-05
0.176432 -1.107136e-05
0.176682 -1.091021e-05
0.176932 -1.074455e-05
0.177182 -1.057446e-05
0.177432 -1.040003e-05
0.177682 -1.022134e-05
0.177932 -1.003848e-05
0.178182 -9.851522e-06
0.178432 -9.660566e-06
0.178682 -9.465700e-06
0.178932 -9.267014e-06
0.179182 -9.064602e-06
0.179432 -8.858559e-06
0.179682 -8.648979e-06
0.179932 -8.435961e-06
0.180182 -8.219602e-06
0.180432 -8.000003e-06
0.180682 -7.777264e-06
0.180932 -7.551487e-06
0.181182 -7.322776e-06
0.181432 -7.091235e-06
0.181682 -6.856969e-06
0.181932 -6.620085e-06
0.182182 -6.380689e-06
0.182432 -6.138890e-06
0.182682 -5.894797e-06
0.182932 -5.648520e-06
0.183182 -5.400168e-06
0.183432 -5.149854e-06
0.183682 -4.897689e-06
0.183932 -4.643785e-06
0.184182 -4.388255e-06
0.184432 -4.131213e-06
0.184682 -3.872772e-06
0.184932 -3.613047e-06
0.185182 -3.352152e-06
0.185432 -3.090202e-06
0.185682 -2.827313e-06
0.185932 -2.563599e-06
0.186182 -2.299176e-06
0.186432 -2.034160e-06
0.186682 -1.768666e-06
0.186932 -1.502809e-06
0.187182 -1.236705e-06