0.000000 -6.017203e-06
0.000250 -5.482871e-06
0.000500 -4.947566e-06
0.000750 -4.411537e-06
0.001000 -3.875033e-06
0.001250 -3.338304e-06
0.001500 -2.801598e-06
0.001750 -2.265163e-06
0.002000 -1.729246e-06
0.002250 -1.194094e-06
0.002500 -6.599518e-07
0.002750 -1.270643e-07
0.003000 4.043249e-07
0.003250 9.339737e-07
0.003500 1.461641e-06
0.003750 1.987088e-06
0.004000 2.510076e-06
0.004250 3.030370e-06
0.004500 3.547734e-06
0.004750 4.061936e-06
0.005000 4.572746e-06
0.005250 5.079935e-06
0.005500 5.583276e-06
0.005750 6.082546e-06
0.006000 6.577522e-06
0.006250 7.067986e-06
0.006500 7.553721e-06
0.006750 8.034512e-06
0.007000 8.510149e-06
0.007250 8.980423e-06
0.007500 9.445128e-06
0.007750 9.904062e-06
0.008000 1.035703e-05
0.008250 1.080382e-05
0.008500 1.124426e-05
0.008750 1.167815e-05
0.009000 1.210530e-05
0.009250 1.252553e-05
0.009500 1.293867e-05
0.009750 1.334453e-05
0.010000 1.374295e-05
0.010250 1.413376e-05
0.010500 1.451679e-05
0.010750 1.489189e-05
0.011000 1.525889e-05
0.011250 1.561765e-05
0.011500 1.596802e-05
0.011750 1.630985e-05
0.012000 1.664300e-05
0.012250 1.696735e-05
0.012500 1.728275e-05
0.012750 1.758909e-05
0.013000 1.788623e-05
0.013250 1.817407e-05
0.013500 1.845249e-05
0.013750 1.872138e-05
0.014000 1.898064e-05
0.014250 1.923016e-05
0.014500 1.946986e-05
0.014750 1.969965e-05
0.015000 1.991943e-05
0.015250 2.012914e-05
0.015500 2.032869e-05
0.015750 2.051801e-05
0.016000 2.069704e-05
0.016250 2.086572e-05
0.016500 2.102399e-05
0.016750 2.117179e-05
0.017000 2.130910e-05
0.017250 2.143586e-05
0.017500 2.155203e-05
0.017750 2.165759e-05
0.018000 2.175251e-05
0.018250 2.183676e-05
0.018500 2.191034e-05
0.018750 2.197323e-05
0.019000 2.202542e-05
0.019250 2.206692e-05
0.019500 2.209771e-05
0.019750 2.211782e-05
0.020000 2.212726e-05
0.020250 2.212604e-05
0.020500 2.211419e-05
0.020750 2.209173e-05
0.021000 2.205870e-05
0.021250 2.201513e-05
0.021500 2.196107e-05
0.021750 2.189656e-05
0.022000 2.182166e-05
0.022250 2.173641e-05
0.022500 2.164089e-05
0.022750 2.153515e-05
0.023000 2.141926e-05
0.023250 2.129331e-05
0.023500 2.115736e-05
0.023750 2.101151e-05
0.024000 2.085583e-05
0.024250 2.069042e-05
0.024500 2.051538e-05
0.024750 2.033081e-05
0.025000 2.013681e-05
0.025250 1.993349e-05
0.025500 1.972095e-05
0.025750 1.949933e-05
0.026000 1.926874e-05
0.026250 1.902930e-05
0.026500 1.878114e-05
0.026750 1.852439e-05
0.027000 1.825920e-05
0.027250 1.798568e-05
0.027500 1.770400e-05
0.027750 1.741430e-05
0.028000 1.711672e-05
0.028250 1.681141e-05
0.028500 1.649854e-05
0.028750 1.617827e-05
0.029000 1.585074e-05
0.029250 1.551614e-05
0.029500 1.517462e-05
0.029750 1.482636e-05
0.030000 1.447153e-05
0.030250 1.411030e-05
0.030500 1.374286e-05
0.030750 1.336939e-05
0.031000 1.299007e-05
0.031250 1.260508e-05
0.031500 1.221461e-05
0.031750 1.181886e-05
0.032000 1.141801e-05
0.032250 1.101226e-05
0.032500 1.060180e-05
0.032750 1.018683e-05
0.033000 9.767558e-06
0.033250 9.344173e-06
0.033500 8.916880e-06
0.033750 8.485885e-06
0.034000 8.051390e-06
0.034250 7.613602e-06
0.034500 7.172727e-06
0.034750 6.728974e-06
0.035000 6.282551e-06
0.035250 5.833667e-06
0.035500 5.382533e-06
0.035750 4.929360e-06
0.036000 4.474358e-06
0.036250 4.017740e-06
0.036500 3.559717e-06
0.036750 3.100501e-06
0.037000 2.640304e-06
0.037250 2.179340e-06
0.037500 1.717819e-06
0.037750 1.255954e-06
0.038000 7.939555e-07
0.038250 3.320360e-07
0.038500 -1.295943e-07
0.038750 -5.907253e-07
0.039000 -1.051147e-06
0.039250 -1.510652e-06
0.039500 -1.969031e-06
0.039750 -2.426078e-06
0.040000 -2.881586e-06
0.040250 -3.335352e-06
0.040500 -3.787171e-06
0.040750 -4.236841e-06
0.041000 -4.684162e-06
0.041250 -5.128934e-06
0.041500 -5.570960e-06
0.041750 -6.010043e-06
0.042000 -6.445989e-06
0.042250 -6.878606e-06
0.042500 -7.307703e-06
0.042750 -7.733092e-06
0.043000 -8.154586e-06
0.043250 -8.572000e-06
0.043500 -8.985154e-06
0.043750 -9.393866e-06
0.044000 -9.797960e-06
0.044250 -1.019726e-05
0.044500 -1.059160e-05
0.044750 -1.098080e-05
0.045000 -1.136469e-05
0.045250 -1.174313e-05
0.045500 -1.211593e-05
0.045750 -1.248295e-05
0.046000 -1.284402e-05
0.046250 -1.319900e-05
0.046500 -1.354774e-05
0.046750 -1.389009e-05
0.047000 -1.422590e-05
0.047250 -1.455504e-05
0.047500 -1.487737e-05
0.047750 -1.519275e-05
0.048000 -1.550107e-05
0.048250 -1.580218e-05
0.048500 -1.609598e-05
0.048750 -1.638233e-05
0.049000 -1.666113e-05
0.049250 -1.693226e-05
0.049500 -1.719561e-05
0.049750 -1.745109e-05
0.050000 -1.769858e-05
0.050250 -1.793799e-05
0.050500 -1.816924e-05
0.050750 -1.839222e-05
0.051000 -1.860686e-05
0.051250 -1.881308e-05
0.051500 -1.901079e-05
0.051750 -1.919993e-05
0.052000 -1.938042e-05
0.052250 -1.955220e-05
0.052500 -1.971521e-05
0.052750 -1.986940e-05
0.053000 -2.001470e-05
0.053250 -2.015108e-05
0.053500 -2.027848e-05
0.053750 -2.039687e-05
0.054000 -2.050622e-05
0.054250 -2.060648e-05
0.054500 -2.069763e-05
0.054750 -2.077965e-05
0.055000 -2.085252e-05
0.055250 -2.091622e-05
0.055500 -2.097075e-05
0.055750 -2.101609e-05
0.056000 -2.105224e-05
0.056250 -2.107921e-05
0.056500 -2.109700e-05
0.056750 -2.110562e-05
0.057000 -2.110508e-05
0.057250 -2.109540e-05
0.057500 -2.107661e-05
0.057750 -2.104874e-05
0.058000 -2.101180e-05
0.058250 -2.096583e-05
0.058500 -2.091089e-05
0.058750 -2.084699e-05
0.059000 -2.077420e-05
0.059250 -2.069257e-05
0.059500 -2.060214e-05
0.059750 -2.050297e-05
0.060000 -2.039513e-05
0.060250 -2.027869e-05
0.060500 -2.015371e-05
0.060750 -2.002026e-05
0.061000 -1.987842e-05
0.061250 -1.972828e-05
0.061500 -1.956991e-05
0.061750 -1.940340e-05
0.062000 -1.922885e-05
0.062250 -1.904635e-05
0.062500 -1.885600e-05
0.062750 -1.865789e-05
0.063000 -1.845214e-05
0.063250 -1.823885e-05
0.063500 -1.801813e-05
0.063750 -1.779009e-05
0.064000 -1.755486e-05
0.064250 -1.731255e-05
0.064500 -1.706329e-05
0.064750 -1.680720e-05
0.065000 -1.654441e-05
0.065250 -1.627505e-05
0.065500 -1.599926e-05
0.065750 -1.571717e-05
0.066000 -1.542893e-05
0.066250 -1.513467e-05
0.066500 -1.483454e-05
0.066750 -1.452868e-05
0.067000 -1.421725e-05
0.067250 -1.390040e-05
0.067500 -1.357828e-05
0.067750 -1.325104e-05
0.068000 -1.291884e-05
0.068250 -1.258185e-05
0.068500 -1.224021e-05
0.068750 -1.189411e-05
0.069000 -1.154369e-05
0.069250 -1.118913e-05
0.069500 -1.083059e-05
0.069750 -1.046825e-05
0.070000 -1.010227e-05
0.070250 -9.732830e-06
0.070500 -9.360095e-06
0.070750 -8.984243e-06
0.071000 -8.605450e-06
0.071250 -8.223890e-06
0.071500 -7.839742e-06
0.071750 -7.453183e-06
0.072000 -7.064392e-06
0.072250 -6.673548e-06
0.072500 -6.280831e-06
0.072750 -5.886420e-06
0.073000 -5.490498e-06
0.073250 -5.093244e-06
0.073500 -4.694841e-06
0.073750 -4.295469e-06
0.074000 -3.895309e-06
0.074250 -3.494544e-06
0.074500 -3.093354e-06
0.074750 -2.691921e-06
0.075000 -2.290426e-06
0.075250 -1.889049e-06
0.075500 -1.487970e-06
0.075750 -1.087369e-06
0.076000 -6.874253e-07
0.076250 -2.883169e-07
0.076500 1.097785e-07
0.076750 5.066840e-07
0.077000 9.022236e-07
0.077250 1.296222e-06
0.077500 1.688506e-06
0.077750 2.078902e-06
0.078000 2.467239e-06
0.078250 2.853346e-06
0.078500 3.237055e-06
0.078750 3.618197e-06
0.079000 3.996607e-06
0.079250 4.372120e-06
0.079500 4.744573e-06
0.079750 5.113805e-06
0.080000 5.479657e-06
0.080250 5.841970e-06
0.080500 6.200590e-06
0.080750 6.555362e-06
0.081000 6.906135e-06
0.081250 7.252759e-06
0.081500 7.595087e-06
0.081750 7.932974e-06
0.082000 8.266276e-06
0.082250 8.594853e-06
0.082500 8.918566e-06
0.082750 9.237281e-06
0.083000 9.550864e-06
0.083250 9.859184e-06
0.083500 1.016211e-05
0.083750 1.045953e-05
0.084000 1.075130e-05
0.084250 1.103732e-05
0.084500 1.131746e-05
0.084750 1.159161e-05
0.085000 1.185965e-05
0.085250 1.212149e-05
0.085500 1.237702e-05
0.085750 1.262613e-05
0.086000 1.286872e-05
0.086250 1.310470e-05
0.086500 1.333397e-05
0.086750 1.355645e-05
0.087000 1.377205e-05
0.087250 1.398068e-05
0.087500 1.418227e-05
0.087750 1.437673e-05
0.088000 1.456400e-05
0.088250 1.474401e-05
0.088500 1.491668e-05
0.088750 1.508197e-05
0.089000 1.523979e-05
0.089250 1.539011e-05
0.089500 1.553286e-05
0.089750 1.566800e-05
0.090000 1.579548e-05
0.090250 1.591526e-05
0.090500 1.602730e-05
0.090750 1.613157e-05
0.091000 1.622802e-05
0.091250 1.631665e-05
0.091500 1.639741e-05
0.091750 1.647030e-05
0.092000 1.653528e-05
0.092250 1.659236e-05
0.092500 1.664151e-05
0.092750 1.668273e-05
0.093000 1.671602e-05
0.093250 1.674138e-05
0.093500 1.675881e-05
0.093750 1.676832e-05
0.094000 1.676992e-05
0.094250 1.676362e-05
0.094500 1.674945e-05
0.094750 1.672742e-05
0.095000 1.669756e-05
0.095250 1.665989e-05
0.095500 1.661446e-05
0.095750 1.656128e-05
0.096000 1.650041e-05
0.096250 1.643189e-05
0.096500 1.635575e-05
0.096750 1.627205e-05
0.097000 1.618084e-05
0.097250 1.608217e-05
0.097500 1.597611e-05
0.097750 1.586271e-05
0.098000 1.574204e-05
0.098250 1.561416e-05
0.098500 1.547915e-05
0.098750 1.533708e-05
0.099000 1.518803e-05
0.099250 1.503208e-05
0.099500 1.486931e-05
0.099750 1.469980e-05
0.100000 1.452364e-05
0.100250 1.434093e-05
0.100500 1.415176e-05
0.100750 1.395622e-05
0.101000 1.375442e-05
0.101250 1.354645e-05
0.101500 1.333243e-05
0.101750 1.311245e-05
0.102000 1.288662e-05
0.102250 1.265507e-05
0.102500 1.241790e-05
0.102750 1.217522e-05
0.103000 1.192716e-05
0.103250 1.167384e-05
0.103500 1.141538e-05
0.103750 1.115191e-05
0.104000 1.088354e-05
0.104250 1.061042e-05
0.104500 1.033267e-05
0.104750 1.005042e-05
0.105000 9.763804e-06
0.105250 9.472965e-06
0.105500 9.178035e-06
0.105750 8.879155e-06
0.106000 8.576465e-06
0.106250 8.270106e-06
0.106500 7.960221e-06
0.106750 7.646956e-06
0.107000 7.330455e-06
0.107250 7.010866e-06
0.107500 6.688336e-06
0.107750 6.363014e-06
0.108000 6.035051e-06
0.108250 5.704596e-06
0.108500 5.371802e-06
0.108750 5.036820e-06
0.109000 4.699804e-06
0.109250 4.360907e-06
0.109500 4.020283e-06
0.109750 3.678087e-06
0.110000 3.334474e-06
0.110250 2.989599e-06
0.110500 2.643618e-06
0.110750 2.296685e-06
0.111000 1.948958e-06
0.111250 1.600592e-06
0.111500 1.251742e-06
0.111750 9.025651e-07
0.112000 5.532162e-07
0.112250 2.038509e-07
0.112500 -1.453759e-07
0.112750 -4.943094e-07
0.113000 -8.427953e-07
0.113250 -1.190680e-06
0.113500 -1.537810e-06
0.113750 -1.884033e-06
0.114000 -2.229197e-06
0.114250 -2.573151e-06
0.114500 -2.915744e-06
0.114750 -3.256828e-06
0.115000 -3.596253e-06
0.115250 -3.933873e-06
0.115500 -4.269542e-06
0.115750 -4.603113e-06
0.116000 -4.934443e-06
0.116250 -5.263389e-06
0.116500 -5.589811e-06
0.116750 -5.913568e-06
0.117000 -6.234521e-06
0.117250 -6.552534e-06
0.117500 -6.867471e-06
0.117750 -7.179199e-06
0.118000 -7.487585e-06
0.118250 -7.792499e-06
0.118500 -8.093812e-06
0.118750 -8.391398e-06
0.119000 -8.685132e-06
0.119250 -8.974890e-06
0.119500 -9.260553e-06
0.119750 -9.542001e-06
0.120000 -9.819117e-06
0.120250 -1.009179e-05
0.120500 -1.035990e-05
0.120750 -1.062334e-05
0.121000 -1.088201e-05
0.121250 -1.113579e-05
0.121500 -1.138459e-05
0.121750 -1.162830e-05
0.122000 -1.186683e-05
0.122250 -1.210007e-05
0.122500 -1.232794e-05
0.122750 -1.255035e-05
0.123000 -1.276720e-05
0.123250 -1.297842e-05
0.123500 -1.318391e-05
0.123750 -1.338360e-05
0.124000 -1.357742e-05
0.124250 -1.376527e-05
0.124500 -1.394710e-05
0.124750 -1.412284e-05
0.125000 -1.429241e-05
0.125250 -1.445576e-05
0.125500 -1.461282e-05
0.125750 -1.476354e-05
0.126000 -1.490785e-05
0.126250 -1.504572e-05
0.126500 -1.517709e-05
0.126750 -1.530191e-05
0.127000 -1.542014e-05
0.127250 -1.553174e-05
0.127500 -1.563668e-05
0.127750 -1.573491e-05
0.128000 -1.582641e-05
0.128250 -1.591116e-05
0.128500 -1.598912e-05
0.128750 -1.606027e-05
0.129000 -1.612460e-05
0.129250 -1.618208e-05
0.129500 -1.623271e-05
0.129750 -1.627648e-05
0.130000 -1.631337e-05
0.130250 -1.634340e-05
0.130500 -1.636654e-05
0.130750 -1.638281e-05
0.131000 -1.639222e-05
0.131250 -1.639477e-05
0.131500 -1.639047e-05
0.131750 -1.637933e-05
0.132000 -1.636138e-05
0.132250 -1.633663e-05
0.132500 -1.630511e-05
0.132750 -1.626685e-05
0.133000 -1.622186e-05
0.133250 -1.617020e-05
0.133500 -1.611188e-05
0.133750 -1.604695e-05
0.134000 -1.597544e-05
0.134250 -1.589741e-05
0.134500 -1.581290e-05
0.134750 -1.572195e-05
0.135000 -1.562462e-05
0.135250 -1.552097e-05
0.135500 -1.541104e-05
0.135750 -1.529490e-05
0.136000 -1.517262e-05
0.136250 -1.504425e-05
0.136500 -1.490987e-05
0.136750 -1.476954e-05
0.137000 -1.462333e-05
0.137250 -1.447133e-05
0.137500 -1.431361e-05
0.137750 -1.415024e-05
0.138000 -1.398131e-05
0.138250 -1.380691e-05
0.138500 -1.362712e-05
0.138750 -1.344204e-05
0.139000 -1.325174e-05
0.139250 -1.305632e-05
0.139500 -1.285588e-05
0.139750 -1.265052e-05
0.140000 -1.244034e-05
0.140250 -1.222543e-05
0.140500 -1.200589e-05
0.140750 -1.178184e-05
0.141000 -1.155338e-05
0.141250 -1.132062e-05
0.141500 -1.108367e-05
0.141750 -1.084263e-05
0.142000 -1.059763e-05
0.142250 -1.034877e-05
0.142500 -1.009618e-05
0.142750 -9.839968e-06
0.143000 -9.580254e-06
0.143250 -9.317160e-06
0.143500 -9.050805e-06
0.143750 -8.781314e-06
0.144000 -8.508810e-06
0.144250 -8.233417e-06
0.144500 -7.955262e-06
0.144750 -7.674471e-06
0.145000 -7.391172e-06
0.145250 -7.105494e-06
0.145500 -6.817565e-06
0.145750 -6.527517e-06
0.146000 -6.235479e-06
0.146250 -5.941583e-06
0.146500 -5.645962e-06
0.146750 -5.348747e-06
0.147000 -5.050071e-06
0.147250 -4.750068e-06
0.147500 -4.448872e-06
0.147750 -4.146615e-06
0.148000 -3.843433e-06
0.148250 -3.539459e-06
0.148500 -3.234829e-06
0.148750 -2.929675e-06
0.149000 -2.624133e-06
0.149250 -2.318336e-06
0.149500 -2.012419e-06
0.149750 -1.706516e-06
0.150000 -1.400760e-06
0.150250 -1.095285e-06
0.150500 -7.902235e-07
0.150750 -4.857078e-07
0.151000 -1.818700e-07
0.151250 1.211583e-07
0.151500 4.232464e-07
0.151750 7.242640e-07
0.152000 1.024082e-06
0.152250 1.322571e-06
0.152500 1.619603e-06
0.152750 1.915053e-06
0.153000 2.208792e-06
0.153250 2.500698e-06
0.153500 2.790644e-06
0.153750 3.078510e-06
0.154000 3.364171e-06
0.154250 3.647510e-06
0.154500 3.928404e-06
0.154750 4.206738e-06
0.155000 4.482394e-06
0.155250 4.755256e-06
0.155500 5.025211e-06
0.155750 5.292147e-06
0.156000 5.555952e-06
0.156250 5.816518e-06
0.156500 6.073737e-06
0.156750 6.327502e-06
0.157000 6.577709e-06
0.157250 6.824257e-06
0.157500 7.067043e-06
0.157750 7.305970e-06
0.158000 7.540940e-06
0.158250 7.771858e-06
0.158500 7.998631e-06
0.158750 8.221168e-06
0.159000 8.439379e-06
0.159250 8.653178e-06
0.159500 8.862480e-06
0.159750 9.067200e-06
0.160000 9.267260e-06
0.160250 9.462580e-06
0.160500 9.653083e-06
0.160750 9.838697e-06
0.161000 1.001935e-05
0.161250 1.019497e-05
0.161500 1.036549e-05
0.161750 1.053085e-05
0.162000 1.069098e-05
0.162250 1.084582e-05
0.162500 1.099532e-05
0.162750 1.113942e-05
0.163000 1.127807e-05
0.163250 1.141122e-05
0.163500 1.153882e-05
0.163750 1.166082e-05
0.164000 1.177718e-05
0.164250 1.188787e-05
0.164500 1.199284e-05
0.164750 1.209206e-05
0.165000 1.218549e-05
0.165250 1.227311e-05
0.165500 1.235489e-05
0.165750 1.243080e-05
0.166000 1.250083e-05
0.166250 1.256494e-05
0.166500 1.262313e-05
0.166750 1.267538e-05
0.167000 1.272169e-05
0.167250 1.276203e-05
0.167500 1.279640e-05
0.167750 1.282480e-05
0.168000 1.284723e-05
0.168250 1.286369e-05
0.168500 1.287418e-05
0.168750 1.287871e-05
0.169000 1.287729e-05
0.169250 1.286993e-05
0.169500 1.285664e-05
0.169750 1.283744e-05
0.170000 1.281235e-05
0.170250 1.278140e-05
0.170500 1.274460e-05
0.170750 1.270198e-05
0.171000 1.265357e-05
0.171250 1.259941e-05
0.171500 1.253952e-05
0.171750 1.247394e-05
0.172000 1.240272e-05
0.172250 1.232590e-05
0.172500 1.224351e-05
0.172750 1.215560e-05
0.173000 1.206223e-05
0.173250 1.196343e-05
0.173500 1.185928e-05
0.173750 1.174981e-05
0.174000 1.163509e-05
0.174250 1.151518e-05
0.174500 1.139013e-05
0.174750 1.126002e-05
0.175000 1.112490e-05
0.175250 1.098485e-05
0.175500 1.083994e-05
0.175750 1.069023e-05
0.176000 1.053580e-05
0.176250 1.037673e-05
0.176500 1.021310e-05
0.176750 1.004497e-05
0.177000 9.872443e-06
0.177250 9.695591e-06
0.177500 9.514500e-06
0.177750 9.329257e-06
0.178000 9.139949e-06
0.178250 8.946667e-06
0.178500 8.749501e-06
0.178750 8.548544e-06
0.179000 8.343890e-06
0.179250 8.135634e-06
0.179500 7.923873e-06
0.179750 7.708705e-06
0.180000 7.490230e-06
0.180250 7.268548e-06
0.180500 7.043761e-06
0.180750 6.815972e-06
0.181000 6.585286e-06
0.181250 6.351807e-06
0.181500 6.115642e-06
0.181750 5.876898e-06
0.182000 5.635682e-06
0.182250 5.392105e-06
0.182500 5.146275e-06
0.182750 4.898303e-06
0.183000 4.648300e-06
0.183250 4.396379e-06
0.183500 4.142652e-06
0.183750 3.887231e-06
0.184000 3.630231e-06
0.184250 3.371765e-06
0.184500 3.111948e-06
0.184750 2.850896e-06
0.185000 2.588722e-06
0.185250 2.325543e-06
0.185500 2.061473e-06
0.185750 1.796630e-06
0.186000 1.531129e-06
0.186250 1.265085e-06
0.186500 9.986160e-07
0.186750 7.318364e-07
0.187000 4.648626e-07
0.187250 1.978104e-07
0.187500 -6.920467e-08
0.187750 -3.360673e-07
0.188000 -6.026623e-07
0.188250 -8.688751e-07
0.188500 -1.134591e-06
0.188750 -1.399697e-06
0.189000 -1.664079e-06
0.189250 -1.927623e-06
0.189500 -2.190219e-06
0.189750 -2.451754e-06
0.190000 -2.712116e-06
0.190250 -2.971197e-06
0.190500 -3.228885e-06
0.190750 -3.485073e-06
0.191000 -3.739653e-06
0.191250 -3.992517e-06
0.191500 -4.243559e-06
0.191750 -4.492675e-06
0.192000 -4.739760e-06
0.192250 -4.984711e-06
0.192500 -5.227427e-06
0.192750 -5.467807e-06
0.193000 -5.705750e-06
0.193250 -5.941160e-06
0.193500 -6.173939e-06
0.193750 -6.403991e-06
0.194000 -6.631222e-06
0.194250 -6.855539e-06
0.194500 -7.076850e-06
0.194750 -7.295066e-06
0.195000 -7.510098e-06
0.195250 -7.721859e-06
0.195500 -7.930264e-06
0.195750 -8.135228e-06
0.196000 -8.336670e-06
0.196250 -8.534510e-06
0.196500 -8.728667e-06
0.196750 -8.919066e-06
0.197000 -9.105631e-06
0.197250 -9.288289e-06
0.197500 -9.466967e-06
0.197750 -9.641596e-06
0.198000 -9.812109e-06
0.198250 -9.978438e-06
0.198500 -1.014052e-05
0.198750 -1.029829e-05
0.199000 -1.045170e-05
0.199250 -1.060067e-05
0.199500 -1.074516e-05
0.199750 -1.088512e-05
0.200000 -1.102048e-05
0.200250 -1.115121e-05
0.200500 -1.127724e-05
0.200750 -1.139854e-05
0.201000 -1.151507e-05
0.201250 -1.162677e-05
0.201500 -1.173362e-05
0.201750 -1.183557e-05
0.202000 -1.193258e-05
0.202250 -1.202464e-05
0.202500 -1.211170e-05
0.202750 -1.219374e-05
0.203000 -1.227072e-05
0.203250 -1.234264e-05
0.203500 -1.240946e-05
0.203750 -1.247116e-05
0.204000 -1.252773e-05
0.204250 -1.257916e-05
0.204500 -1.262542e-05
0.204750 -1.266651e-05
0.205000 -1.270242e-05
0.205250 -1.273315e-05
0.205500 -1.275869e-05
0.205750 -1.277904e-05
0.206000 -1.279419e-05
0.206250 -1.280416e-05
0.206500 -1.280895e-05
0.206750 -1.280856e-05
0.207000 -1.280300e-05
0.207250 -1.279229e-05
0.207500 -1.277644e-05
0.207750 -1.275546e-05
0.208000 -1.272938e-05
0.208250 -1.269821e-05
0.208500 -1.266197e-05
0.208750 -1.262070e-05
0.209000 -1.257442e-05
0.209250 -1.252315e-05
0.209500 -1.246692e-05
0.209750 -1.240578e-05
0.210000 -1.233975e-05
0.210250 -1.226888e-05
0.210500 -1.219319e-05
0.210750 -1.211274e-05
0.211000 -1.202756e-05
0.211250 -1.193771e-05
0.211500 -1.184322e-05
0.211750 -1.174414e-05
0.212000 -1.164054e-05
0.212250 -1.153245e-05
0.212500 -1.141993e-05
0.212750 -1.130304e-05
0.213000 -1.118185e-05
0.213250 -1.105639e-05
0.213500 -1.092675e-05
0.213750 -1.079298e-05
0.214000 -1.065514e-05
0.214250 -1.051330e-05
0.214500 -1.036754e-05
0.214750 -1.021791e-05
0.215000 -1.006450e-05
0.215250 -9.907364e-06
0.215500 -9.746588e-06
0.215750 -9.582244e-06
0.216000 -9.414409e-06
0.216250 -9.243161e-06
0.216500 -9.068578e-06
0.216750 -8.890743e-06
0.217000 -8.709736e-06
0.217250 -8.525641e-06
0.217500 -8.338542e-06
0.217750 -8.148524e-06
0.218000 -7.955674e-06
0.218250 -7.760080e-06
0.218500 -7.561830e-06
0.218750 -7.361013e-06
0.219000 -7.157720e-06
0.219250 -6.952042e-06
0.219500 -6.744072e-06
0.219750 -6.533902e-06
0.220000 -6.321626e-06
0.220250 -6.107339e-06
0.220500 -5.891136e-06
0.220750 -5.673112e-06
0.221000 -5.453364e-06
0.221250 -5.231989e-06
0.221500 -5.009085e-06
0.221750 -4.784749e-06
0.222000 -4.559079e-06
0.222250 -4.332176e-06
0.222500 -4.104136e-06
0.222750 -3.875061e-06
0.223000 -3.645049e-06
0.223250 -3.414201e-06
0.223500 -3.182617e-06
0.223750 -2.950396e-06
0.224000 -2.717639e-06
0.224250 -2.484446e-06
0.224500 -2.250918e-06
0.224750 -2.017154e-06
0.225000 -1.783256e-06
0.225250 -1.549322e-06
0.225500 -1.315454e-06
0.225750 -1.081749e-06
0.226000 -8.483090e-07
0.226250 -6.152314e-07
0.226500 -3.826155e-07
0.226750 -1.505596e-07
0.227000 8.083832e-08
0.227250 3.114808e-07
0.227500 5.412710e-07
0.227750 7.701123e-07
0.228000 9.979090e-07
0.228250 1.224566e-06
0.228500 1.449988e-06
0.228750 1.674082e-06
0.229000 1.896755e-06
0.229250 2.117914e-06
0.229500 2.337468e-06
0.229750 2.555327e-06
0.230000 2.771399e-06
0.230250 2.985598e-06
0.230500 3.197834e-06
0.230750 3.408021e-06
0.231000 3.616073e-06
0.231250 3.821905e-06
0.231500 4.025434e-06
0.231750 4.226578e-06
0.232000 4.425254e-06
0.232250 4.621383e-06
0.232500 4.814886e-06
0.232750 5.005685e-06
0.233000 5.193704e-06
0.233250 5.378868e-06
0.233500 5.561103e-06
0.233750 5.740338e-06
0.234000 5.916500e-06
0.234250 6.089521e-06
0.234500 6.259333e-06
0.234750 6.425870e-06
0.235000 6.589066e-06
0.235250 6.748858e-06
0.235500 6.905185e-06
0.235750 7.057985e-06
0.236000 7.207202e-06
0.236250 7.352776e-06
0.236500 7.494654e-06
0.236750 7.632782e-06
0.237000 7.767108e-06
0.237250 7.897581e-06
0.237500 8.024152e-06
0.237750 8.146777e-06
0.238000 8.265408e-06
0.238250 8.380004e-06
0.238500 8.490523e-06
0.238750 8.596925e-06
0.239000 8.699172e-06
0.239250 8.797229e-06
0.239500 8.891061e-06
0.239750 8.980637e-06
0.240000 9.065926e-06
0.240250 9.146900e-06
0.240500 9.223531e-06
0.240750 9.295796e-06
0.241000 9.363672e-06
0.241250 9.427137e-06
0.241500 9.486174e-06
0.241750 9.540764e-06
0.242000 9.590894e-06
0.242250 9.636549e-06
0.242500 9.677718e-06
0.242750 9.714393e-06
0.243000 9.746565e-06
0.243250 9.774230e-06
0.243500 9.797383e-06
0.243750 9.816024e-06
0.244000 9.830152e-06
0.244250 9.839771e-06
0.244500 9.844883e-06
0.244750 9.845495e-06
0.245000 9.841615e-06
0.245250 9.833254e-06
0.245500 9.820421e-06
0.245750 9.803132e-06
0.246000 9.781402e-06
0.246250 9.755248e-06
0.246500 9.724689e-06
0.246750 9.689747e-06
0.247000 9.650444e-06
0.247250 9.606804e-06
0.247500 9.558855e-06
0.247750 9.506625e-06
0.248000 9.450143e-06
0.248250 9.389441e-06
0.248500 9.324553e-06
0.248750 9.255514e-06
0.249000 9.182361e-06
0.249250 9.105133e-06
0.249500 9.023869e-06
0.249750 8.938612e-06
0.250000 8.849405e-06
0.250250 8.756293e-06
0.250500 8.659323e-06
0.250750 8.558543e-06
0.251000 8.454003e-06
0.251250 8.345754e-06
0.251500 8.233848e-06
0.251750 8.118341e-06
0.252000 7.999287e-06
0.252250 7.876743e-06
0.252500 7.750769e-06
0.252750 7.621422e-06
0.253000 7.488766e-06
0.253250 7.352861e-06
0.253500 7.213772e-06
0.253750 7.071563e-06
0.254000 6.926301e-06
0.254250 6.778052e-06
0.254500 6.626885e-06
0.254750 6.472870e-06
0.255000 6.316076e-06
0.255250 6.156576e-06
0.255500 5.994441e-06
0.255750 5.829747e-06
0.256000 5.662566e-06
0.256250 5.492975e-06
0.256500 5.321049e-06
0.256750 5.146867e-06
0.257000 4.970505e-06
0.257250 4.792043e-06
0.257500 4.611561e-06
0.257750 4.429137e-06
0.258000 4.244854e-06
0.258250 4.058793e-06
0.258500 3.871035e-06
0.258750 3.681664e-06
0.259000 3.490762e-06
0.259250 3.298414e-06
0.259500 3.104704e-06
0.259750 2.909715e-06
0.260000 2.713534e-06
0.260250 2.516245e-06
0.260500 2.317934e-06
0.260750 2.118686e-06
0.261000 1.918589e-06
0.261250 1.717728e-06
0.261500 1.516190e-06
0.261750 1.314061e-06
0.262000 1.111428e-06
0.262250 9.083786e-07
0.262500 7.049983e-07
0.262750 5.013743e-07
0.263000 2.975934e-07
0.263250 9.374209e-08
0.263500 -1.100932e-07
0.263750 -3.138260e-07
0.264000 -5.173705e-07
0.264250 -7.206406e-07
0.264500 -9.235509e-07
0.264750 -1.126016e-06
0.265000 -1.327951e-06
0.265250 -1.529272e-06
0.265500 -1.729894e-06
0.265750 -1.929733e-06
0.266000 -2.128707e-06
0.266250 -2.326733e-06
0.266500 -2.523728e-06
0.266750 -2.719612e-06
0.267000 -2.914303e-06
0.267250 -3.107721e-06
0.267500 -3.299787e-06
0.267750 -3.490421e-06
0.268000 -3.679546e-06
0.268250 -3.867085e-06
0.268500 -4.052960e-06
0.268750 -4.237096e-06
0.269000 -4.419419e-06
0.269250 -4.599855e-06
0.269500 -4.778330e-06
0.269750 -4.954772e-06
0.270000 -5.129112e-06
0.270250 -5.301278e-06
0.270500 -5.471203e-06
0.270750 -5.638817e-06
0.271000 -5.804055e-06
0.271250 -5.966850e-06
0.271500 -6.127139e-06
0.271750 -6.284858e-06
0.272000 -6.439945e-06
0.272250 -6.592339e-06
0.272500 -6.741980e-06
0.272750 -6.888811e-06
0.273000 -7.032774e-06
0.273250 -7.173814e-06
0.273500 -7.311876e-06
0.273750 -7.446907e-06
0.274000 -7.578856e-06
0.274250 -7.707672e-06
0.274500 -7.833306e-06
0.274750 -7.955712e-06
0.275000 -8.074843e-06
0.275250 -8.190654e-06
0.275500 -8.303104e-06
0.275750 -8.412149e-06
0.276000 -8.517751e-06
0.276250 -8.619871e-06
0.276500 -8.718472e-06
0.276750 -8.813518e-06
0.277000 -8.904976e-06
0.277250 -8.992814e-06
0.277500 -9.077001e-06
0.277750 -9.157508e-06
0.278000 -9.234307e-06
0.278250 -9.307373e-06
0.278500 -9.376682e-06
0.278750 -9.442210e-06
0.279000 -9.503938e-06
0.279250 -9.561845e-06
0.279500 -9.615915e-06
0.279750 -9.666131e-06
0.280000 -9.712478e-06
0.280250 -9.754945e-06
0.280500 -9.793520e-06
0.280750 -9.828194e-06
0.281000 -9.858959e-06
0.281250 -9.885809e-06
0.281500 -9.908740e-06
0.281750 -9.927748e-06
0.282000 -9.942834e-06
0.282250 -9.953997e-06
0.282500 -9.961240e-06
0.282750 -9.964567e-06
0.283000 -9.963983e-06
0.283250 -9.959496e-06
0.283500 -9.951114e-06
0.283750 -9.938847e-06
0.284000 -9.922708e-06
0.284250 -9.902711e-06
0.284500 -9.878870e-06
0.284750 -9.851203e-06
0.285000 -9.819728e-06
0.285250 -9.784465e-06
0.285500 -9.745435e-06
0.285750 -9.702662e-06
0.286000 -9.656170e-06
0.286250 -9.605986e-06
0.286500 -9.552137e-06
0.286750 -9.494652e-06
0.287000 -9.433562e-06
0.287250 -9.368898e-06
0.287500 -9.300696e-06
0.287750 -9.228988e-06
0.288000 -9.153813e-06
0.288250 -9.075207e-06
0.288500 -8.993210e-06
0.288750 -8.907863e-06
0.289000 -8.819206e-06
0.289250 -8.727284e-06
0.289500 -8.632140e-06
0.289750 -8.533821e-06
0.290000 -8.432373e-06
0.290250 -8.327844e-06
0.290500 -8.220285e-06
0.290750 -8.109745e-06
0.291000 -7.996276e-06
0.291250 -7.879932e-06
0.291500 -7.760765e-06
0.291750 -7.638832e-06
0.292000 -7.514188e-06
0.292250 -7.386891e-06
0.292500 -7.256998e-06
0.292750 -7.124570e-06
0.293000 -6.989665e-06
0.293250 -6.852346e-06
0.293500 -6.712673e-06
0.293750 -6.570711e-06
0.294000 -6.426522e-06
0.294250 -6.280171e-06
0.294500 -6.131724e-06
0.294750 -5.981246e-06
0.295000 -5.828804e-06
0.295250 -5.674466e-06
0.295500 -5.518299e-06
0.295750 -5.360374e-06
0.296000 -5.200758e-06
0.296250 -5.039523e-06
0.296500 -4.876738e-06
0.296750 -4.712475e-06
0.297000 -4.546805e-06
0.297250 -4.379800e-06
0.297500 -4.211533e-06
0.297750 -4.042077e-06
0.298000 -3.871504e-06
0.298250 -3.699889e-06
0.298500 -3.527305e-06
0.298750 -3.353826e-06
0.299000 -3.179527e-06
0.299250 -3.004482e-06
0.299500 -2.828766e-06
0.299750 -2.652454e-06
0.300000 -2.475621e-06
0.300250 -2.298341e-06
0.300500 -2.120691e-06
0.300750 -1.942745e-06
0.301000 -1.764578e-06
0.301250 -1.586265e-06
0.301500 -1.407882e-06
0.301750 -1.229504e-06
0.302000 -1.051204e-06
0.302250 -8.730581e-07
0.302500 -6.951403e-07
0.302750 -5.175247e-07
0.303000 -3.402853e-07
0.303250 -1.634957e-07
0.303500 1.277091e-08
0.303750 1.884415e-07
0.304000 3.634437e-07
0.304250 5.377051e-07
0.304500 7.111543e-07
0.304750 8.837199e-07
0.305000 1.055331e-06
0.305250 1.225918e-06
0.305500 1.395411e-06
0.305750 1.563741e-06
0.306000 1.730839e-06
0.306250 1.896637e-06
0.306500 2.061070e-06
0.306750 2.224069e-06
0.307000 2.385570e-06
0.307250 2.545507e-06
0.307500 2.703817e-06
0.307750 2.860435e-06
0.308000 3.015300e-06
0.308250 3.168349e-06
0.308500 3.319523e-06
0.308750 3.468760e-06
0.309000 3.616002e-06
0.309250 3.761190e-06
0.309500 3.904269e-06
0.309750 4.045181e-06
0.310000 4.183871e-06
0.310250 4.320286e-06
0.310500 4.454372e-06
0.310750 4.586077e-06
0.311000 4.715352e-06
0.311250 4.842144e-06
0.311500 4.966407e-06
0.311750 5.088093e-06
0.312000 5.207155e-06
0.312250 5.323548e-06
0.312500 5.437229e-06
0.312750 5.548154e-06
0.313000 5.656282e-06
0.313250 5.761574e-06
0.313500 5.863989e-06
0.313750 5.963490e-06
0.314000 6.060041e-06
0.314250 6.153607e-06
0.314500 6.244154e-06
0.314750 6.331649e-06
0.315000 6.416062e-06
0.315250 6.497362e-06
0.315500 6.575521e-06
0.315750 6.650512e-06
0.316000 6.722309e-06
0.316250 6.790889e-06
0.316500 6.856227e-06
0.316750 6.918303e-06
0.317000 6.977096e-06
0.317250 7.032588e-06
0.317500 7.084762e-06
0.317750 7.133601e-06
0.318000 7.179090e-06
0.318250 7.221218e-06
0.318500 7.259972e-06
0.318750 7.295343e-06
0.319000 7.327320e-06
0.319250 7.355898e-06
0.319500 7.381070e-06
0.319750 7.402832e-06
0.320000 7.421180e-06
0.320250 7.436114e-06
0.320500 7.447633e-06
0.320750 7.455738e-06
0.321000 7.460431e-06
0.321250 7.461718e-06
0.321500 7.459604e-06
0.321750 7.454094e-06
0.322000 7.445199e-06
0.322250 7.432927e-06
0.322500 7.417289e-06
0.322750 7.398299e-06
0.323000 7.375970e-06
0.323250 7.350316e-06
0.323500 7.321356e-06
0.323750 7.289106e-06
0.324000 7.253586e-06
0.324250 7.214817e-06
0.324500 7.172820e-06
0.324750 7.127618e-06
0.325000 7.079237e-06
0.325250 7.027702e-06
0.325500 6.973039e-06
0.325750 6.915278e-06
0.326000 6.854448e-06
0.326250 6.790578e-06
0.326500 6.723703e-06
0.326750 6.653854e-06
0.327000 6.581065e-06
0.327250 6.505373e-06
0.327500 6.426814e-06
0.327750 6.345425e-06
0.328000 6.261245e-06
0.328250 6.174315e-06
0.328500 6.084675e-06
0.328750 5.992367e-06
0.329000 5.897434e-06
0.329250 5.799920e-06
0.329500 5.699871e-06
0.329750 5.597331e-06
0.330000 5.492349e-06
0.330250 5.384971e-06
0.330500 5.275247e-06
0.330750 5.163226e-06
0.331000 5.048958e-06
0.331250 4.932495e-06
0.331500 4.813889e-06
0.331750 4.693192e-06
0.332000 4.570458e-06
0.332250 4.445742e-06
0.332500 4.319098e-06
0.332750 4.190582e-06
0.333000 4.060250e-06
0.333250 3.928159e-06