0.000000 7.112968e-05
0.000250 7.290973e-05
0.000500 7.465154e-05
0.000750 7.635428e-05
0.001000 7.801718e-05
0.001250 7.963947e-05
0.001500 8.122040e-05
0.001750 8.275924e-05
0.002000 8.425529e-05
0.002250 8.570787e-05
0.002500 8.711631e-05
0.002750 8.847998e-05
0.003000 8.979826e-05
0.003250 9.107056e-05
0.003500 9.229631e-05
0.003750 9.347497e-05
0.004000 9.460601e-05
0.004250 9.568893e-05
0.004500 9.672326e-05
0.004750 9.770855e-05
0.005000 9.864438e-05
0.005250 9.953035e-05
0.005500 1.003661e-04
0.005750 1.011512e-04
0.006000 1.018854e-04
0.006250 1.025684e-04
0.006500 1.031999e-04
0.006750 1.037797e-04
0.007000 1.043075e-04
0.007250 1.047832e-04
0.007500 1.052065e-04
0.007750 1.055773e-04
0.008000 1.058956e-04
0.008250 1.061611e-04
0.008500 1.063739e-04
0.008750 1.065338e-04
0.009000 1.066410e-04
0.009250 1.066953e-04
0.009500 1.066968e-04
0.009750 1.066456e-04
0.010000 1.065418e-04
0.010250 1.063854e-04
0.010500 1.061767e-04
0.010750 1.059157e-04
0.011000 1.056026e-04
0.011250 1.052378e-04
0.011500 1.048213e-04
0.011750 1.043535e-04
0.012000 1.038346e-04
0.012250 1.032650e-04
0.012500 1.026450e-04
0.012750 1.019750e-04
0.013000 1.012552e-04
0.013250 1.004863e-04
0.013500 9.966847e-05
0.013750 9.880229e-05
0.014000 9.788822e-05
0.014250 9.692674e-05
0.014500 9.591838e-05
0.014750 9.486369e-05
0.015000 9.376323e-05
0.015250 9.261758e-05
0.015500 9.142736e-05
0.015750 9.019319e-05
0.016000 8.891573e-05
0.016250 8.759563e-05
0.016500 8.623360e-05
0.016750 8.483033e-05
0.017000 8.338656e-05
0.017250 8.190304e-05
0.017500 8.038053e-05
0.017750 7.881982e-05
0.018000 7.722170e-05
0.018250 7.558699e-05
0.018500 7.391653e-05
0.018750 7.221117e-05
0.019000 7.047177e-05
0.019250 6.869923e-05
0.019500 6.689443e-05
0.019750 6.505829e-05
0.020000 6.319173e-05
0.020250 6.129571e-05
0.020500 5.937116e-05
0.020750 5.741905e-05
0.021000 5.544037e-05
0.021250 5.343610e-05
0.021500 5.140724e-05
0.021750 4.935482e-05
0.022000 4.727984e-05
0.022250 4.518333e-05
0.022500 4.306636e-05
0.022750 4.092995e-05
0.023000 3.877517e-05
0.023250 3.660309e-05
0.023500 3.441477e-05
0.023750 3.221130e-05
0.024000 2.999377e-05
0.024250 2.776326e-05
0.024500 2.552087e-05
0.024750 2.326770e-05
0.025000 2.100486e-05
0.025250 1.873346e-05
0.025500 1.645460e-05
0.025750 1.416940e-05
0.026000 1.187898e-05
0.026250 9.584448e-06
0.026500 7.286927e-06
0.026750 4.987533e-06
0.027000 2.687384e-06
0.027250 3.875968e-07
0.027500 -1.910714e-06
0.027750 -4.206436e-06
0.028000 -6.498457e-06
0.028250 -8.785669e-06
0.028500 -1.106697e-05
0.028750 -1.334126e-05
0.029000 -1.560743e-05
0.029250 -1.786441e-05
0.029500 -2.011111e-05
0.029750 -2.234644e-05
0.030000 -2.456933e-05
0.030250 -2.677873e-05
0.030500 -2.897356e-05
0.030750 -3.115279e-05
0.031000 -3.331537e-05
0.031250 -3.546027e-05
0.031500 -3.758646e-05
0.031750 -3.969294e-05
0.032000 -4.177871e-05
0.032250 -4.384277e-05
0.032500 -4.588414e-05
0.032750 -4.790185e-05
0.033000 -4.989496e-05
0.033250 -5.186252e-05
0.033500 -5.380360e-05
0.033750 -5.571729e-05
0.034000 -5.760268e-05
0.034250 -5.945889e-05
0.034500 -6.128504e-05
0.034750 -6.308029e-05
0.035000 -6.484378e-05
0.035250 -6.657470e-05
0.035500 -6.827224e-05
0.035750 -6.993561e-05
0.036000 -7.156402e-05
0.036250 -7.315673e-05
0.036500 -7.471300e-05
0.036750 -7.623211e-05
0.037000 -7.771335e-05
0.037250 -7.915604e-05
0.037500 -8.055951e-05
0.037750 -8.192314e-05
0.038000 -8.324628e-05
0.038250 -8.452833e-05
0.038500 -8.576872e-05
0.038750 -8.696686e-05
0.039000 -8.812224e-05
0.039250 -8.923431e-05
0.039500 -9.030258e-05
0.039750 -9.132657e-05
0.040000 -9.230582e-05
0.040250 -9.323990e-05
0.040500 -9.412839e-05
0.040750 -9.497090e-05
0.041000 -9.576706e-05
0.041250 -9.651652e-05
0.041500 -9.721897e-05
0.041750 -9.787409e-05
0.042000 -9.848161e-05
0.042250 -9.904128e-05
0.042500 -9.955286e-05
0.042750 -1.000161e-04
0.043000 -1.004309e-04
0.043250 -1.007971e-04
0.043500 -1.011144e-04
0.043750 -1.013829e-04
0.044000 -1.016024e-04
0.044250 -1.017728e-04
0.044500 -1.018941e-04
0.044750 -1.019662e-04
0.045000 -1.019893e-04
0.045250 -1.019632e-04
0.045500 -1.018880e-04
0.045750 -1.017639e-04
0.046000 -1.015909e-04
0.046250 -1.013691e-04
0.046500 -1.010987e-04
0.046750 -1.007798e-04
0.047000 -1.004127e-04
0.047250 -9.999743e-05
0.047500 -9.953436e-05
0.047750 -9.902370e-05
0.048000 -9.846573e-05
0.048250 -9.786075e-05
0.048500 -9.720909e-05
0.048750 -9.651109e-05
0.049000 -9.576711e-05
0.049250 -9.497754e-05
0.049500 -9.414278e-05
0.049750 -9.326328e-05
0.050000 -9.233947e-05
0.050250 -9.137183e-05
0.050500 -9.036085e-05
0.050750 -8.930705e-05
0.051000 -8.821094e-05
0.051250 -8.707309e-05
0.051500 -8.589406e-05
0.051750 -8.467444e-05
0.052000 -8.341485e-05
0.052250 -8.211590e-05
0.052500 -8.077824e-05
0.052750 -7.940253e-05
0.053000 -7.798946e-05
0.053250 -7.653972e-05
0.053500 -7.505402e-05
0.053750 -7.353309e-05
0.054000 -7.197769e-05
0.054250 -7.038856e-05
0.054500 -6.876649e-05
0.054750 -6.711227e-05
0.055000 -6.542671e-05
0.055250 -6.371063e-05
0.055500 -6.196486e-05
0.055750 -6.019025e-05
0.056000 -5.838766e-05
0.056250 -5.655796e-05
0.056500 -5.470204e-05
0.056750 -5.282079e-05
0.057000 -5.091513e-05
0.057250 -4.898597e-05
0.057500 -4.703424e-05
0.057750 -4.506088e-05
0.058000 -4.306684e-05
0.058250 -4.105308e-05
0.058500 -3.902056e-05
0.058750 -3.697025e-05
0.059000 -3.490315e-05
0.059250 -3.282023e-05
0.059500 -3.072249e-05
0.059750 -2.861094e-05
0.060000 -2.648657e-05
0.060250 -2.435041e-05
0.060500 -2.220347e-05
0.060750 -2.004677e-05
0.061000 -1.788134e-05
0.061250 -1.570820e-05
0.061500 -1.352839e-05
0.061750 -1.134294e-05
0.062000 -9.152881e-06
0.062250 -6.959257e-06
0.062500 -4.763102e-06
0.062750 -2.565454e-06
0.063000 -3.673508e-07
0.063250 1.830170e-06
0.063500 4.026074e-06
0.063750 6.219325e-06
0.064000 8.408891e-06
0.064250 1.059374e-05
0.064500 1.277285e-05
0.064750 1.494520e-05
0.065000 1.710976e-05
0.065250 1.926553e-05
0.065500 2.141149e-05
0.065750 2.354663e-05
0.066000 2.566997e-05
0.066250 2.778050e-05
0.066500 2.987724e-05
0.066750 3.195922e-05
0.067000 3.402545e-05
0.067250 3.607499e-05
0.067500 3.810688e-05
0.067750 4.012017e-05
0.068000 4.211392e-05
0.068250 4.408722e-05
0.068500 4.603914e-05
0.068750 4.796879e-05
0.069000 4.987526e-05
0.069250 5.175768e-05
0.069500 5.361518e-05
0.069750 5.544690e-05
0.070000 5.725199e-05
0.070250 5.902963e-05
0.070500 6.077899e-05
0.070750 6.249927e-05
0.071000 6.418969e-05
0.071250 6.584946e-05
0.071500 6.747783e-05
0.071750 6.907404e-05
0.072000 7.063738e-05
0.072250 7.216712e-05
0.072500 7.366257e-05
0.072750 7.512305e-05
0.073000 7.654790e-05
0.073250 7.793646e-05
0.073500 7.928810e-05
0.073750 8.060223e-05
0.074000 8.187823e-05
0.074250 8.311554e-05
0.074500 8.431359e-05
0.074750 8.547186e-05
0.075000 8.658981e-05
0.075250 8.766696e-05
0.075500 8.870281e-05
0.075750 8.969691e-05
0.076000 9.064882e-05
0.076250 9.155811e-05
0.076500 9.242438e-05
0.076750 9.324725e-05
0.077000 9.402636e-05
0.077250 9.476137e-05
0.077500 9.545197e-05
0.077750 9.609784e-05
0.078000 9.669872e-05
0.078250 9.725434e-05
0.078500 9.776448e-05
0.078750 9.822892e-05
0.079000 9.864747e-05
0.079250 9.901995e-05
0.079500 9.934622e-05
0.079750 9.962615e-05
0.080000 9.985963e-05
0.080250 1.000466e-04
0.080500 1.001869e-04
0.080750 1.002806e-04
0.081000 1.003277e-04
0.081250 1.003281e-04
0.081500 1.002819e-04
0.081750 1.001891e-04
0.082000 1.000497e-04
0.082250 9.986399e-05
0.082500 9.963191e-05
0.082750 9.935364e-05
0.083000 9.902933e-05
0.083250 9.865916e-05
0.083500 9.824332e-05
0.083750 9.778203e-05
0.084000 9.727552e-05
0.084250 9.672405e-05
0.084500 9.612791e-05
0.084750 9.548738e-05
0.085000 9.480278e-05
0.085250 9.407446e-05
0.085500 9.330278e-05
0.085750 9.248810e-05
0.086000 9.163084e-05
0.086250 9.073140e-05
0.086500 8.979023e-05
0.086750 8.880778e-05
0.087000 8.778453e-05
0.087250 8.672096e-05
0.087500 8.561759e-05
0.087750 8.447495e-05
0.088000 8.329359e-05
0.088250 8.207407e-05
0.088500 8.081696e-05
0.088750 7.952288e-05
0.089000 7.819243e-05
0.089250 7.682625e-05
0.089500 7.542498e-05
0.089750 7.398929e-05
0.090000 7.251985e-05
0.090250 7.101737e-05
0.090500 6.948254e-05
0.090750 6.791609e-05
0.091000 6.631875e-05
0.091250 6.469129e-05
0.091500 6.303445e-05
0.091750 6.134903e-05
0.092000 5.963580e-05
0.092250 5.789557e-05
0.092500 5.612915e-05
0.092750 5.433736e-05
0.093000 5.252105e-05
0.093250 5.068106e-05
0.093500 4.881825e-05
0.093750 4.693348e-05
0.094000 4.502763e-05
0.094250 4.310158e-05
0.094500 4.115623e-05
0.094750 3.919248e-05
0.095000 3.721124e-05
0.095250 3.521343e-05
0.095500 3.319997e-05
0.095750 3.117180e-05
0.096000 2.912984e-05
0.096250 2.707505e-05
0.096500 2.500837e-05
0.096750 2.293075e-05
0.097000 2.084315e-05
0.097250 1.874653e-05
0.097500 1.664186e-05
0.097750 1.453009e-05
0.098000 1.241221e-05
0.098250 1.028919e-05
0.098500 8.161991e-06
0.098750 6.031595e-06
0.099000 3.898977e-06
0.099250 1.765114e-06
0.099500 -3.690195e-07
0.099750 -2.502448e-06
0.100000 -4.634196e-06
0.100250 -6.763292e-06
0.100500 -8.888764e-06
0.100750 -1.100964e-05
0.101000 -1.312497e-05
0.101250 -1.523377e-05
0.101500 -1.733509e-05
0.101750 -1.942798e-05
0.102000 -2.151148e-05
0.102250 -2.358465e-05
0.102500 -2.564656e-05
0.102750 -2.769625e-05
0.103000 -2.973282e-05
0.103250 -3.175533e-05
0.103500 -3.376287e-05
0.103750 -3.575454e-05
0.104000 -3.772943e-05
0.104250 -3.968665e-05
0.104500 -4.162533e-05
0.104750 -4.354459e-05
0.105000 -4.544356e-05
0.105250 -4.732140e-05
0.105500 -4.917726e-05
0.105750 -5.101030e-05
0.106000 -5.281970e-05
0.106250 -5.460466e-05
0.106500 -5.636437e-05
0.106750 -5.809805e-05
0.107000 -5.980492e-05
0.107250 -6.148422e-05
0.107500 -6.313520e-05
0.107750 -6.475713e-05
0.108000 -6.634928e-05
0.108250 -6.791095e-05
0.108500 -6.944145e-05
0.108750 -7.094009e-05
0.109000 -7.240621e-05
0.109250 -7.383916e-05
0.109500 -7.523831e-05
0.109750 -7.660305e-05
0.110000 -7.793276e-05
0.110250 -7.922687e-05
0.110500 -8.048481e-05
0.110750 -8.170603e-05
0.111000 -8.288999e-05
0.111250 -8.403617e-05
0.111500 -8.514408e-05
0.111750 -8.621323e-05
0.112000 -8.724315e-05
0.112250 -8.823341e-05
0.112500 -8.918358e-05
0.112750 -9.009324e-05
0.113000 -9.096200e-05
0.113250 -9.178949e-05
0.113500 -9.257537e-05
0.113750 -9.331928e-05
0.114000 -9.402093e-05
0.114250 -9.468001e-05
0.114500 -9.529625e-05
0.114750 -9.586939e-05
0.115000 -9.639920e-05
0.115250 -9.688545e-05
0.115500 -9.732796e-05
0.115750 -9.772654e-05
0.116000 -9.808103e-05
0.116250 -9.839130e-05
0.116500 -9.865723e-05
0.116750 -9.887873e-05
0.117000 -9.905571e-05
0.117250 -9.918812e-05
0.117500 -9.927593e-05
0.117750 -9.931911e-05
0.118000 -9.931766e-05
0.118250 -9.927163e-05
0.118500 -9.918103e-05
0.118750 -9.904595e-05
0.119000 -9.886646e-05
0.119250 -9.864267e-05
0.119500 -9.837469e-05
0.119750 -9.806268e-05
0.120000 -9.770680e-05
0.120250 -9.730723e-05
0.120500 -9.686417e-05
0.120750 -9.637784e-05
0.121000 -9.584848e-05
0.121250 -9.527636e-05
0.121500 -9.466175e-05
0.121750 -9.400495e-05
0.122000 -9.330628e-05
0.122250 -9.256607e-05
0.122500 -9.178467e-05
0.122750 -9.096247e-05
0.123000 -9.009984e-05
0.123250 -8.919720e-05
0.123500 -8.825497e-05
0.123750 -8.727360e-05
0.124000 -8.625354e-05
0.124250 -8.519528e-05
0.124500 -8.409930e-05
0.124750 -8.296612e-05
0.125000 -8.179626e-05
0.125250 -8.059027e-05
0.125500 -7.934871e-05
0.125750 -7.807215e-05
0.126000 -7.676118e-05
0.126250 -7.541640e-05
0.126500 -7.403844e-05
0.126750 -7.262793e-05
0.127000 -7.118552e-05
0.127250 -6.971186e-05
0.127500 -6.820763e-05
0.127750 -6.667353e-05
0.128000 -6.511026e-05
0.128250 -6.351851e-05
0.128500 -6.189904e-05
0.128750 -6.025256e-05
0.129000 -5.857984e-05
0.129250 -5.688162e-05
0.129500 -5.515869e-05
0.129750 -5.341183e-05
0.130000 -5.164182e-05
0.130250 -4.984947e-05
0.130500 -4.803559e-05
0.130750 -4.620101e-05
0.131000 -4.434654e-05
0.131250 -4.247303e-05
0.131500 -4.058132e-05
0.131750 -3.867227e-05
0.132000 -3.674673e-05
0.132250 -3.480557e-05
0.132500 -3.284967e-05
0.132750 -3.087989e-05
0.133000 -2.889714e-05
0.133250 -2.690229e-05
0.133500 -2.489624e-05
0.133750 -2.287989e-05
0.134000 -2.085414e-05
0.134250 -1.881990e-05
0.134500 -1.677808e-05
0.134750 -1.472958e-05
0.135000 -1.267532e-05
0.135250 -1.061622e-05
0.135500 -8.553197e-06
0.135750 -6.487166e-06
0.136000 -4.419046e-06
0.136250 -2.349759e-06
0.136500 -2.802214e-07
0.136750 1.788647e-06
0.137000 3.855928e-06
0.137250 5.920707e-06
0.137500 7.982069e-06
0.137750 1.003910e-05
0.138000 1.209089e-05
0.138250 1.413654e-05
0.138500 1.617514e-05
0.138750 1.820580e-05
0.139000 2.022761e-05
0.139250 2.223968e-05
0.139500 2.424114e-05
0.139750 2.623110e-05
0.140000 2.820869e-05
0.140250 3.017304e-05
0.140500 3.212328e-05
0.140750 3.405857e-05
0.141000 3.597805e-05
0.141250 3.788089e-05
0.141500 3.976625e-05
0.141750 4.163332e-05
0.142000 4.348127e-05
0.142250 4.530930e-05
0.142500 4.711662e-05
0.142750 4.890243e-05
0.143000 5.066597e-05
0.143250 5.240647e-05
0.143500 5.412317e-05
0.143750 5.581532e-05
0.144000 5.748221e-05
0.144250 5.912310e-05
0.144500 6.073729e-05
0.144750 6.232408e-05
0.145000 6.388278e-05
0.145250 6.541274e-05
0.145500 6.691329e-05
0.145750 6.838378e-05
0.146000 6.982359e-05
0.146250 7.123211e-05
0.146500 7.260872e-05
0.146750 7.395285e-05
0.147000 7.526392e-05
0.147250 7.654137e-05
0.147500 7.778466e-05
0.147750 7.899328e-05
0.148000 8.016669e-05
0.148250 8.130442e-05
0.148500 8.240599e-05
0.148750 8.347092e-05
0.149000 8.449878e-05
0.149250 8.548914e-05
0.149500 8.644158e-05
0.149750 8.735571e-05
0.150000 8.823116e-05
0.150250 8.906756e-05
0.150500 8.986456e-05
0.150750 9.062186e-05
0.151000 9.133913e-05
0.151250 9.201608e-05
0.151500 9.265246e-05
0.151750 9.324799e-05
0.152000 9.380246e-05
0.152250 9.431564e-05
0.152500 9.478733e-05
0.152750 9.521735e-05
0.153000 9.560554e-05
0.153250 9.595177e-05
0.153500 9.625589e-05
0.153750 9.651782e-05
0.154000 9.673745e-05
0.154250 9.691473e-05
0.154500 9.704960e-05
0.154750 9.714203e-05
0.155000 9.719201e-05
0.155250 9.719954e-05
0.155500 9.716466e-05
0.155750 9.708740e-05
0.156000 9.696783e-05
0.156250 9.680602e-05
0.156500 9.660208e-05
0.156750 9.635612e-05
0.157000 9.606829e-05
0.157250 9.573872e-05
0.157500 9.536760e-05
0.157750 9.495512e-05
0.158000 9.450149e-05
0.158250 9.400693e-05
0.158500 9.347168e-05
0.158750 9.289601e-05
0.159000 9.228020e-05
0.159250 9.162454e-05
0.159500 9.092935e-05
0.159750 9.019496e-05
0.160000 8.942171e-05
0.160250 8.860998e-05
0.160500 8.776014e-05
0.160750 8.687259e-05
0.161000 8.594774e-05
0.161250 8.498603e-05
0.161500 8.398790e-05
0.161750 8.295381e-05
0.162000 8.188424e-05
0.162250 8.077967e-05
0.162500 7.964062e-05
0.162750 7.846761e-05
0.163000 7.726117e-05
0.163250 7.602186e-05
0.163500 7.475022e-05
0.163750 7.344686e-05
0.164000 7.211234e-05
0.164250 7.074729e-05
0.164500 6.935230e-05
0.164750 6.792803e-05
0.165000 6.647509e-05
0.165250 6.499416e-05
0.165500 6.348589e-05
0.165750 6.195096e-05
0.166000 6.039006e-05
0.166250 5.880389e-05
0.166500 5.719315e-05
0.166750 5.555857e-05
0.167000 5.390086e-05
0.167250 5.222078e-05
0.167500 5.051907e-05
0.167750 4.879648e-05
0.168000 4.705378e-05
0.168250 4.529175e-05
0.168500 4.351115e-05
0.168750 4.171278e-05
0.169000 3.989744e-05
0.169250 3.806592e-05
0.169500 3.621904e-05
0.169750 3.435760e-05
0.170000 3.248243e-05
0.170250 3.059435e-05
0.170500 2.869420e-05
0.170750 2.678280e-05
0.171000 2.486099e-05
0.171250 2.292962e-05
0.171500 2.098952e-05
0.171750 1.904156e-05
0.172000 1.708658e-05
0.172250 1.512544e-05
0.172500 1.315898e-05
0.172750 1.118807e-05
0.173000 9.213561e-06
0.173250 7.236319e-06
0.173500 5.257199e-06
0.173750 3.277061e-06
0.174000 1.296764e-06
0.174250 -6.828333e-07
0.174500 -2.660874e-06
0.174750 -4.636503e-06
0.175000 -6.608866e-06
0.175250 -8.577111e-06
0.175500 -1.054039e-05
0.175750 -1.249785e-05
0.176000 -1.444866e-05
0.176250 -1.639198e-05
0.176500 -1.832696e-05
0.176750 -2.025278e-05
0.177000 -2.216862e-05
0.177250 -2.407364e-05
0.177500 -2.596705e-05
0.177750 -2.784802e-05
0.178000 -2.971575e-05
0.178250 -3.156945e-05
0.178500 -3.340832e-05
0.178750 -3.523159e-05
0.179000 -3.703848e-05
0.179250 -3.882821e-05
0.179500 -4.060004e-05
0.179750 -4.235320e-05
0.180000 -4.408697e-05
0.180250 -4.580059e-05
0.180500 -4.749336e-05
0.180750 -4.916455e-05
0.181000 -5.081346e-05
0.181250 -5.243940e-05
0.181500 -5.404169e-05
0.181750 -5.561965e-05
0.182000 -5.717262e-05
0.182250 -5.869996e-05
0.182500 -6.020102e-05
0.182750 -6.167518e-05
0.183000 -6.312183e-05
0.183250 -6.454036e-05
0.183500 -6.593019e-05
0.183750 -6.729073e-05
0.184000 -6.862144e-05
0.184250 -6.992176e-05
0.184500 -7.119115e-05
0.184750 -7.242910e-05
0.185000 -7.363510e-05
0.185250 -7.480865e-05
0.185500 -7.594928e-05
0.185750 -7.705652e-05
0.186000 -7.812993e-05
0.186250 -7.916906e-05
0.186500 -8.017352e-05
0.186750 -8.114288e-05
0.187000 -8.207676e-05
0.187250 -8.297480e-05
0.187500 -8.383663e-05
0.187750 -8.466192e-05
0.188000 -8.545035e-05
0.188250 -8.620160e-05
0.188500 -8.691538e-05
0.188750 -8.759142e-05
0.189000 -8.822947e-05
0.189250 -8.882928e-05
0.189500 -8.939062e-05
0.189750 -8.991329e-05
0.190000 -9.039710e-05
0.190250 -9.084188e-05
0.190500 -9.124746e-05
0.190750 -9.161371e-05
0.191000 -9.194050e-05
0.191250 -9.222774e-05
0.191500 -9.247532e-05
0.191750 -9.268319e-05
0.192000 -9.285128e-05
0.192250 -9.297956e-05
0.192500 -9.306802e-05
0.192750 -9.311664e-05
0.193000 -9.312544e-05
0.193250 -9.309445e-05
0.193500 -9.302373e-05
0.193750 -9.291334e-05
0.194000 -9.276337e-05
0.194250 -9.257390e-05
0.194500 -9.234507e-05
0.194750 -9.207700e-05
0.195000 -9.176984e-05
0.195250 -9.142377e-05
0.195500 -9.103896e-05
0.195750 -9.061562e-05
0.196000 -9.015397e-05
0.196250 -8.965423e-05
0.196500 -8.911665e-05
0.196750 -8.854151e-05
0.197000 -8.792908e-05
0.197250 -8.727965e-05
0.197500 -8.659355e-05
0.197750 -8.587110e-05
0.198000 -8.511264e-05
0.198250 -8.431853e-05
0.198500 -8.348914e-05
0.198750 -8.262487e-05
0.199000 -8.172611e-05
0.199250 -8.079329e-05
0.199500 -7.982683e-05
0.199750 -7.882718e-05
0.200000 -7.779479e-05
0.200250 -7.673015e-05
0.200500 -7.563373e-05
0.200750 -7.450604e-05
0.201000 -7.334758e-05
0.201250 -7.215889e-05
0.201500 -7.094050e-05
0.201750 -6.969296e-05
0.202000 -6.841683e-05
0.202250 -6.711268e-05
0.202500 -6.578111e-05
0.202750 -6.442269e-05
0.203000 -6.303804e-05
0.203250 -6.162779e-05
0.203500 -6.019254e-05
0.203750 -5.873295e-05
0.204000 -5.724966e-05
0.204250 -5.574332e-05
0.204500 -5.421461e-05
0.204750 -5.266419e-05
0.205000 -5.109275e-05
0.205250 -4.950099e-05
0.205500 -4.788959e-05
0.205750 -4.625927e-05
0.206000 -4.461075e-05
0.206250 -4.294474e-05
0.206500 -4.126197e-05
0.206750 -3.956318e-05
0.207000 -3.784911e-05
0.207250 -3.612050e-05
0.207500 -3.437811e-05
0.207750 -3.262270e-05
0.208000 -3.085501e-05
0.208250 -2.907583e-05
0.208500 -2.728593e-05
0.208750 -2.548606e-05
0.209000 -2.367703e-05
0.209250 -2.185959e-05
0.209500 -2.003454e-05
0.209750 -1.820267e-05
0.210000 -1.636475e-05
0.210250 -1.452159e-05
0.210500 -1.267396e-05
0.210750 -1.082267e-05
0.211000 -8.968498e-06
0.211250 -7.112247e-06
0.211500 -5.254706e-06
0.211750 -3.396668e-06
0.212000 -1.538924e-06
0.212250 3.177337e-07
0.212500 2.172517e-06
0.212750 4.024637e-06
0.213000 5.873309e-06
0.213250 7.717749e-06
0.213500 9.557177e-06
0.213750 1.139081e-05
0.214000 1.321789e-05
0.214250 1.503762e-05
0.214500 1.684926e-05
0.214750 1.865203e-05
0.215000 2.044518e-05
0.215250 2.222796e-05
0.215500 2.399961e-05
0.215750 2.575940e-05
0.216000 2.750659e-05
0.216250 2.924045e-05
0.216500 3.096026e-05
0.216750 3.266530e-05
0.217000 3.435486e-05
0.217250 3.602824e-05
0.217500 3.768475e-05
0.217750 3.932370e-05
0.218000 4.094441e-05
0.218250 4.254621e-05
0.218500 4.412845e-05
0.218750 4.569046e-05
0.219000 4.723162e-05
0.219250 4.875129e-05
0.219500 5.024884e-05
0.219750 5.172366e-05
0.220000 5.317515e-05
0.220250 5.460273e-05
0.220500 5.600580e-05
0.220750 5.738380e-05
0.221000 5.873618e-05
0.221250 6.006238e-05
0.221500 6.136188e-05
0.221750 6.263414e-05
0.222000 6.387867e-05
0.222250 6.509496e-05
0.222500 6.628252e-05
0.222750 6.744089e-05
0.223000 6.856960e-05
0.223250 6.966821e-05
0.223500 7.073629e-05
0.223750 7.177342e-05
0.224000 7.277918e-05
0.224250 7.375320e-05
0.224500 7.469509e-05
0.224750 7.560448e-05
0.225000 7.648104e-05
0.225250 7.732442e-05
0.225500 7.813430e-05
0.225750 7.891038e-05
0.226000 7.965237e-05
0.226250 8.035998e-05
0.226500 8.103297e-05
0.226750 8.167108e-05
0.227000 8.227408e-05
0.227250 8.284175e-05
0.227500 8.337390e-05
0.227750 8.387034e-05
0.228000 8.433091e-05
0.228250 8.475543e-05
0.228500 8.514379e-05
0.228750 8.549585e-05
0.229000 8.581150e-05
0.229250 8.609066e-05
0.229500 8.633325e-05
0.229750 8.653920e-05
0.230000 8.670848e-05
0.230250 8.684105e-05
0.230500 8.693689e-05
0.230750 8.699602e-05
0.231000 8.701845e-05
0.231250 8.700420e-05
0.231500 8.695333e-05
0.231750 8.686591e-05
0.232000 8.674201e-05
0.232250 8.658173e-05
0.232500 8.638517e-05
0.232750 8.615247e-05
0.233000 8.588376e-05
0.233250 8.557920e-05
0.233500 8.523896e-05
0.233750 8.486322e-05
0.234000 8.445220e-05
0.234250 8.400609e-05
0.234500 8.352513e-05
0.234750 8.300957e-05
0.235000 8.245967e-05
0.235250 8.187569e-05
0.235500 8.125793e-05
0.235750 8.060668e-05
0.236000 7.992227e-05
0.236250 7.920501e-05
0.236500 7.845526e-05
0.236750 7.767337e-05
0.237000 7.685970e-05
0.237250 7.601464e-05
0.237500 7.513858e-05
0.237750 7.423193e-05
0.238000 7.329511e-05
0.238250 7.232855e-05
0.238500 7.133270e-05
0.238750 7.030801e-05
0.239000 6.925495e-05
0.239250 6.817400e-05
0.239500 6.706564e-05
0.239750 6.593038e-05
0.240000 6.476874e-05
0.240250 6.358123e-05
0.240500 6.236838e-05
0.240750 6.113075e-05
0.241000 5.986887e-05
0.241250 5.858332e-05
0.241500 5.727467e-05
0.241750 5.594349e-05
0.242000 5.459038e-05
0.242250 5.321593e-05
0.242500 5.182075e-05
0.242750 5.040545e-05
0.243000 4.897066e-05
0.243250 4.751700e-05
0.243500 4.604512e-05
0.243750 4.455565e-05
0.244000 4.304924e-05
0.244250 4.152656e-05
0.244500 3.998826e-05
0.244750 3.843501e-05
0.245000 3.686748e-05
0.245250 3.528636e-05
0.245500 3.369233e-05
0.245750 3.208607e-05
0.246000 3.046828e-05
0.246250 2.883965e-05
0.246500 2.720089e-05
0.246750 2.555270e-05
0.247000 2.389578e-05
0.247250 2.223084e-05
0.247500 2.055860e-05
0.247750 1.887977e-05
0.248000 1.719506e-05
0.248250 1.550520e-05
0.248500 1.381090e-05
0.248750 1.211288e-05
0.249000 1.041186e-05
0.249250 8.708555e-06
0.249500 7.003695e-06
0.249750 5.297997e-06
0.250000 3.592179e-06
0.250250 1.886961e-06
0.250500 1.830587e-07
0.250750 -1.518811e-06
0.251000 -3.217934e-06
0.251250 -4.913599e-06
0.251500 -6.605096e-06
0.251750 -8.291718e-06
0.252000 -9.972762e-06
0.252250 -1.164753e-05
0.252500 -1.331532e-05
0.252750 -1.497544e-05
0.253000 -1.662720e-05
0.253250 -1.826992e-05
0.253500 -1.990292e-05
0.253750 -2.152553e-05
0.254000 -2.313707e-05
0.254250 -2.473688e-05
0.254500 -2.632430e-05
0.254750 -2.789869e-05
0.255000 -2.945939e-05
0.255250 -3.100577e-05
0.255500 -3.253719e-05
0.255750 -3.405304e-05
0.256000 -3.555269e-05
0.256250 -3.703554e-05
0.256500 -3.850097e-05
0.256750 -3.994841e-05
0.257000 -4.137727e-05
0.257250 -4.278696e-05
0.257500 -4.417692e-05
0.257750 -4.554660e-05
0.258000 -4.689544e-05
0.258250 -4.822291e-05
0.258500 -4.952847e-05
0.258750 -5.081161e-05
0.259000 -5.207181e-05
0.259250 -5.330858e-05
0.259500 -5.452143e-05
0.259750 -5.570987e-05
0.260000 -5.687346e-05
0.260250 -5.801172e-05
0.260500 -5.912421e-05
0.260750 -6.021051e-05
0.261000 -6.127018e-05
0.261250 -6.230283e-05
0.261500 -6.330804e-05
0.261750 -6.428545e-05
0.262000 -6.523467e-05
0.262250 -6.615535e-05
0.262500 -6.704713e-05
0.262750 -6.790968e-05
0.263000 -6.874268e-05
0.263250 -6.954582e-05
0.263500 -7.031880e-05
0.263750 -7.106134e-05
0.264000 -7.177317e-05
0.264250 -7.245402e-05
0.264500 -7.310367e-05
0.264750 -7.372187e-05
0.265000 -7.430842e-05
0.265250 -7.486310e-05
0.265500 -7.538574e-05
0.265750 -7.587614e-05
0.266000 -7.633416e-05
0.266250 -7.675965e-05
0.266500 -7.715247e-05
0.266750 -7.751249e-05
0.267000 -7.783963e-05
0.267250 -7.813378e-05
0.267500 -7.839486e-05
0.267750 -7.862282e-05
0.268000 -7.881761e-05
0.268250 -7.897918e-05
0.268500 -7.910751e-05
0.268750 -7.920261e-05
0.269000 -7.926447e-05
0.269250 -7.929312e-05
0.269500 -7.928859e-05
0.269750 -7.925093e-05
0.270000 -7.918020e-05
0.270250 -7.907648e-05
0.270500 -7.893986e-05
0.270750 -7.877044e-05
0.271000 -7.856834e-05
0.271250 -7.833369e-05
0.271500 -7.806663e-05
0.271750 -7.776733e-05
0.272000 -7.743595e-05
0.272250 -7.707268e-05
0.272500 -7.667771e-05
0.272750 -7.625126e-05
0.273000 -7.579355e-05
0.273250 -7.530482e-05
0.273500 -7.478532e-05
0.273750 -7.423530e-05
0.274000 -7.365505e-05
0.274250 -7.304485e-05
0.274500 -7.240499e-05
0.274750 -7.173579e-05
0.275000 -7.103758e-05
0.275250 -7.031068e-05
0.275500 -6.955544e-05
0.275750 -6.877223e-05
0.276000 -6.796140e-05
0.276250 -6.712334e-05
0.276500 -6.625845e-05
0.276750 -6.536711e-05
0.277000 -6.444974e-05
0.277250 -6.350678e-05
0.277500 -6.253864e-05
0.277750 -6.154577e-05
0.278000 -6.052862e-05
0.278250 -5.948766e-05
0.278500 -5.842335e-05
0.278750 -5.733618e-05
0.279000 -5.622663e-05
0.279250 -5.509521e-05
0.279500 -5.394242e-05
0.279750 -5.276877e-05
0.280000 -5.157479e-05
0.280250 -5.036100e-05
0.280500 -4.912795e-05
0.280750 -4.787618e-05
0.281000 -4.660624e-05
0.281250 -4.531869e-05
0.281500 -4.401410e-05
0.281750 -4.269304e-05
0.282000 -4.135608e-05
0.282250 -4.000382e-05
0.282500 -3.863684e-05
0.282750 -3.725573e-05
0.283000 -3.586109e-05
0.283250 -3.445354e-05
0.283500 -3.303367e-05
0.283750 -3.160211e-05
0.284000 -3.015946e-05
0.284250 -2.870635e-05
0.284500 -2.724341e-05
0.284750 -2.577126e-05
0.285000 -2.429054e-05
0.285250 -2.280187e-05
0.285500 -2.130589e-05
0.285750 -1.980325e-05
0.286000 -1.829457e-05
0.286250 -1.678050e-05
0.286500 -1.526169e-05
0.286750 -1.373877e-05
0.287000 -1.221240e-05
0.287250 -1.068321e-05
0.287500 -9.151849e-06
0.287750 -7.618966e-06
0.288000 -6.085203e-06
0.288250 -4.551205e-06
0.288500 -3.017614e-06
0.288750 -1.485072e-06
0.289000 4.578057e-08
0.289250 1.574304e-06
0.289500 3.099863e-06
0.289750 4.621822e-06
0.290000 6.139548e-06
0.290250 7.652413e-06
0.290500 9.159791e-06
0.290750 1.066106e-05
0.291000 1.215559e-05
0.291250 1.364278e-05
0.291500 1.512201e-05
0.291750 1.659268e-05
0.292000 1.805418e-05
0.292250 1.950591e-05
0.292500 2.094728e-05
0.292750 2.237770e-05
0.293000 2.379660e-05
0.293250 2.520338e-05
0.293500 2.659749e-05
0.293750 2.797836e-05
0.294000 2.934543e-05
0.294250 3.069814e-05
0.294500 3.203597e-05
0.294750 3.335835e-05
0.295000 3.466478e-05
0.295250 3.595472e-05
0.295500 3.722766e-05
0.295750 3.848309e-05
0.296000 3.972052e-05
0.296250 4.093945e-05
0.296500 4.213940e-05
0.296750 4.331990e-05
0.297000 4.448049e-05
0.297250 4.562071e-05
0.297500 4.674011e-05
0.297750 4.783826e-05
0.298000 4.891473e-05
0.298250 4.996910e-05
0.298500 5.100097e-05
0.298750 5.200994e-05
0.299000 5.299562e-05
0.299250 5.395764e-05
0.299500 5.489563e-05
0.299750 5.580924e-05
0.300000 5.669812e-05
0.300250 5.756193e-05
0.300500 5.840036e-05
0.300750 5.921310e-05
0.301000 5.999984e-05
0.301250 6.076030e-05
0.301500 6.149419e-05
0.301750 6.220126e-05
0.302000 6.288125e-05
0.302250 6.353392e-05
0.302500 6.415903e-05
0.302750 6.475638e-05
0.303000 6.532575e-05
0.303250 6.586694e-05
0.303500 6.637979e-05
0.303750 6.686411e-05
0.304000 6.731975e-05
0.304250 6.774657e-05
0.304500 6.814443e-05
0.304750 6.851321e-05
0.305000 6.885280e-05
0.305250 6.916311e-05
0.305500 6.944405e-05
0.305750 6.969556e-05
0.306000 6.991758e-05
0.306250 7.011005e-05
0.306500 7.027295e-05
0.306750 7.040625e-05
0.307000 7.050995e-05
0.307250 7.058405e-05
0.307500 7.062857e-05
0.307750 7.064354e-05
0.308000 7.062899e-05
0.308250 7.058498e-05
0.308500 7.051158e-05
0.308750 7.040886e-05
0.309000 7.027692e-05
0.309250 7.011586e-05
0.309500 6.992578e-05
0.309750 6.970683e-05
0.310000 6.945913e-05
0.310250 6.918284e-05
0.310500 6.887811e-05
0.310750 6.854513e-05
0.311000 6.818407e-05
0.311250 6.779514e-05
0.311500 6.737854e-05
0.311750 6.693449e-05
0.312000 6.646323e-05
0.312250 6.596498e-05
0.312500 6.544001e-05
0.312750 6.488859e-05
0.313000 6.431097e-05
0.313250 6.370745e-05
0.313500 6.307833e-05
0.313750 6.242390e-05
0.314000 6.174449e-05
0.314250 6.104041e-05
0.314500 6.031201e-05
0.314750 5.955963e-05
0.315000 5.878362e-05
0.315250 5.798434e-05
0.315500 5.716218e-05
0.315750 5.631751e-05
0.316000 5.545072e-05
0.316250 5.456221e-05
0.316500 5.365239e-05
0.316750 5.272168e-05
0.317000 5.177049e-05
0.317250 5.079927e-05
0.317500 4.980845e-05
0.317750 4.879847e-05
0.318000 4.776980e-05
0.318250 4.672290e-05
0.318500 4.565823e-05
0.318750 4.457627e-05
0.319000 4.347750e-05
0.319250 4.236240e-05
0.319500 4.123148e-05
0.319750 4.008524e-05
0.320000 3.892417e-05
0.320250 3.774879e-05
0.320500 3.655961e-05
0.320750 3.535717e-05
0.321000 3.414197e-05
0.321250 3.291456e-05
0.321500 3.167547e-05
0.321750 3.042523e-05
0.322000 2.916438e-05
0.322250 2.789349e-05
0.322500 2.661308e-05
0.322750 2.532372e-05
0.323000 2.402596e-05
0.323250 2.272036e-05
0.323500 2.140748e-05
0.323750 2.008788e-05
0.324000 1.876212e-05
0.324250 1.743078e-05
0.324500 1.609441e-05
0.324750 1.475359e-05
0.325000 1.340888e-05
0.325250 1.206086e-05
0.325500 1.071010e-05
0.325750 9.357164e-06
0.326000 8.002625e-06
0.326250 6.647053e-06
0.326500 5.291019e-06
0.326750 3.935092e-06
0.327000 2.579840e-06
0.327250 1.225830e-06
0.327500 -1.263737e-07
0.327750 -1.476206e-06
0.328000 -2.823106e-06
0.328250 -4.166513e-06
0.328500 -5.505871e-06
0.328750 -6.840624e-06
0.329000 -8.170222e-06
0.329250 -9.494115e-06
0.329500 -1.081176e-05
0.329750 -1.212261e-05
0.330000 -1.342613e-05
0.330250 -1.472179e-05
0.330500 -1.600905e-05
0.330750 -1.728740e-05
0.331000 -1.855630e-05
0.331250 -1.981525e-05
0.331500 -2.106373e-05
0.331750 -2.230124e-05
0.332000 -2.352728e-05
0.332250 -2.474134e-05
0.332500 -2.594295e-05
0.332750 -2.713162e-05
0.333000 -2.830688e-05
0.333250 -2.946825e-05
0.333500 -3.061527e-05