0.000000 5.740149e-06
0.000250 5.209119e-06
0.000500 4.676855e-06
0.000750 4.143605e-06
0.001000 3.609620e-06
0.001250 3.075145e-06
0.001500 2.540431e-06
0.001750 2.005725e-06
0.002000 1.471272e-06
0.002250 9.373209e-07
0.002500 4.041161e-07
0.002750 -1.280975e-07
0.003000 -6.590762e-07
0.003250 -1.188577e-06
0.003500 -1.716359e-06
0.003750 -2.242182e-06
0.004000 -2.765807e-06
0.004250 -3.286997e-06
0.004500 -3.805517e-06
0.004750 -4.321132e-06
0.005000 -4.833612e-06
0.005250 -5.342726e-06
0.005500 -5.848246e-06
0.005750 -6.349946e-06
0.006000 -6.847604e-06
0.006250 -7.340997e-06
0.006500 -7.829908e-06
0.006750 -8.314120e-06
0.007000 -8.793420e-06
0.007250 -9.267597e-06
0.007500 -9.736443e-06
0.007750 -1.019975e-05
0.008000 -1.065733e-05
0.008250 -1.110896e-05
0.008500 -1.155447e-05
0.008750 -1.199364e-05
0.009000 -1.242631e-05
0.009250 -1.285227e-05
0.009500 -1.327135e-05
0.009750 -1.368338e-05
0.010000 -1.408816e-05
0.010250 -1.448554e-05
0.010500 -1.487534e-05
0.010750 -1.525741e-05
0.011000 -1.563158e-05
0.011250 -1.599769e-05
0.011500 -1.635560e-05
0.011750 -1.670515e-05
0.012000 -1.704621e-05
0.012250 -1.737863e-05
0.012500 -1.770228e-05
0.012750 -1.801703e-05
0.013000 -1.832275e-05
0.013250 -1.861932e-05
0.013500 -1.890662e-05
0.013750 -1.918455e-05
0.014000 -1.945298e-05
0.014250 -1.971183e-05
0.014500 -1.996098e-05
0.014750 -2.020034e-05
0.015000 -2.042983e-05
0.015250 -2.064936e-05
0.015500 -2.085885e-05
0.015750 -2.105823e-05
0.016000 -2.124742e-05
0.016250 -2.142635e-05
0.016500 -2.159497e-05
0.016750 -2.175323e-05
0.017000 -2.190106e-05
0.017250 -2.203842e-05
0.017500 -2.216528e-05
0.017750 -2.228159e-05
0.018000 -2.238733e-05
0.018250 -2.248246e-05
0.018500 -2.256697e-05
0.018750 -2.264084e-05
0.019000 -2.270405e-05
0.019250 -2.275661e-05
0.019500 -2.279850e-05
0.019750 -2.282973e-05
0.020000 -2.285031e-05
0.020250 -2.286025e-05
0.020500 -2.285957e-05
0.020750 -2.284829e-05
0.021000 -2.282644e-05
0.021250 -2.279405e-05
0.021500 -2.275116e-05
0.021750 -2.269780e-05
0.022000 -2.263403e-05
0.022250 -2.255989e-05
0.022500 -2.247544e-05
0.022750 -2.238074e-05
0.023000 -2.227585e-05
0.023250 -2.216085e-05
0.023500 -2.203581e-05
0.023750 -2.190080e-05
0.024000 -2.175591e-05
0.024250 -2.160122e-05
0.024500 -2.143683e-05
0.024750 -2.126283e-05
0.025000 -2.107932e-05
0.025250 -2.088641e-05
0.025500 -2.068419e-05
0.025750 -2.047279e-05
0.026000 -2.025232e-05
0.026250 -2.002290e-05
0.026500 -1.978465e-05
0.026750 -1.953770e-05
0.027000 -1.928218e-05
0.027250 -1.901823e-05
0.027500 -1.874597e-05
0.027750 -1.846557e-05
0.028000 -1.817715e-05
0.028250 -1.788088e-05
0.028500 -1.757689e-05
0.028750 -1.726535e-05
0.029000 -1.694641e-05
0.029250 -1.662023e-05
0.029500 -1.628699e-05
0.029750 -1.594684e-05
0.030000 -1.559995e-05
0.030250 -1.524650e-05
0.030500 -1.488667e-05
0.030750 -1.452062e-05
0.031000 -1.414855e-05
0.031250 -1.377062e-05
0.031500 -1.338704e-05
0.031750 -1.299798e-05
0.032000 -1.260363e-05
0.032250 -1.220419e-05
0.032500 -1.179984e-05
0.032750 -1.139079e-05
0.033000 -1.097723e-05
0.033250 -1.055935e-05
0.033500 -1.013736e-05
0.033750 -9.711455e-06
0.034000 -9.281842e-06
0.034250 -8.848724e-06
0.034500 -8.412305e-06
0.034750 -7.972791e-06
0.035000 -7.530389e-06
0.035250 -7.085307e-06
0.035500 -6.637754e-06
0.035750 -6.187939e-06
0.036000 -5.736072e-06
0.036250 -5.282363e-06
0.036500 -4.827023e-06
0.036750 -4.370264e-06
0.037000 -3.912297e-06
0.037250 -3.453333e-06
0.037500 -2.993583e-06
0.037750 -2.533260e-06
0.038000 -2.072573e-06
0.038250 -1.611735e-06
0.038500 -1.150955e-06
0.038750 -6.904432e-07
0.039000 -2.304097e-07
0.039250 2.289370e-07
0.039500 6.873889e-07
0.039750 1.144739e-06
0.040000 1.600780e-06
0.040250 2.055308e-06
0.040500 2.508118e-06
0.040750 2.959007e-06
0.041000 3.407774e-06
0.041250 3.854219e-06
0.041500 4.298142e-06
0.041750 4.739347e-06
0.042000 5.177638e-06
0.042250 5.612821e-06
0.042500 6.044705e-06
0.042750 6.473099e-06
0.043000 6.897815e-06
0.043250 7.318667e-06
0.043500 7.735471e-06
0.043750 8.148046e-06
0.044000 8.556212e-06
0.044250 8.959793e-06
0.044500 9.358613e-06
0.044750 9.752501e-06
0.045000 1.014129e-05
0.045250 1.052481e-05
0.045500 1.090289e-05
0.045750 1.127539e-05
0.046000 1.164213e-05
0.046250 1.200296e-05
0.046500 1.235774e-05
0.046750 1.270630e-05
0.047000 1.304851e-05
0.047250 1.338423e-05
0.047500 1.371330e-05
0.047750 1.403561e-05
0.048000 1.435100e-05
0.048250 1.465937e-05
0.048500 1.496056e-05
0.048750 1.525448e-05
0.049000 1.554099e-05
0.049250 1.581998e-05
0.049500 1.609133e-05
0.049750 1.635495e-05
0.050000 1.661073e-05
0.050250 1.685856e-05
0.050500 1.709835e-05
0.050750 1.733000e-05
0.051000 1.755343e-05
0.051250 1.776856e-05
0.051500 1.797529e-05
0.051750 1.817356e-05
0.052000 1.836329e-05
0.052250 1.854440e-05
0.052500 1.871685e-05
0.052750 1.888056e-05
0.053000 1.903547e-05
0.053250 1.918154e-05
0.053500 1.931872e-05
0.053750 1.944696e-05
0.054000 1.956621e-05
0.054250 1.967645e-05
0.054500 1.977765e-05
0.054750 1.986977e-05
0.055000 1.995278e-05
0.055250 2.002668e-05
0.055500 2.009145e-05
0.055750 2.014706e-05
0.056000 2.019352e-05
0.056250 2.023083e-05
0.056500 2.025898e-05
0.056750 2.027798e-05
0.057000 2.028784e-05
0.057250 2.028857e-05
0.057500 2.028019e-05
0.057750 2.026272e-05
0.058000 2.023619e-05
0.058250 2.020062e-05
0.058500 2.015606e-05
0.058750 2.010254e-05
0.059000 2.004009e-05
0.059250 1.996877e-05
0.059500 1.988863e-05
0.059750 1.979972e-05
0.060000 1.970209e-05
0.060250 1.959581e-05
0.060500 1.948094e-05
0.060750 1.935756e-05
0.061000 1.922573e-05
0.061250 1.908553e-05
0.061500 1.893703e-05
0.061750 1.878034e-05
0.062000 1.861552e-05
0.062250 1.844267e-05
0.062500 1.826188e-05
0.062750 1.807326e-05
0.063000 1.787689e-05
0.063250 1.767290e-05
0.063500 1.746137e-05
0.063750 1.724243e-05
0.064000 1.701618e-05
0.064250 1.678274e-05
0.064500 1.654224e-05
0.064750 1.629479e-05
0.065000 1.604051e-05
0.065250 1.577955e-05
0.065500 1.551202e-05
0.065750 1.523807e-05
0.066000 1.495782e-05
0.066250 1.467141e-05
0.066500 1.437900e-05
0.066750 1.408071e-05
0.067000 1.377670e-05
0.067250 1.346712e-05
0.067500 1.315211e-05
0.067750 1.283183e-05
0.068000 1.250643e-05
0.068250 1.217607e-05
0.068500 1.184090e-05
0.068750 1.150110e-05
0.069000 1.115681e-05
0.069250 1.080821e-05
0.069500 1.045545e-05
0.069750 1.009872e-05
0.070000 9.738163e-06
0.070250 9.373963e-06
0.070500 9.006289e-06
0.070750 8.635312e-06
0.071000 8.261206e-06
0.071250 7.884145e-06
0.071500 7.504305e-06
0.071750 7.121862e-06
0.072000 6.736994e-06
0.072250 6.349877e-06
0.072500 5.960691e-06
0.072750 5.569615e-06
0.073000 5.176829e-06
0.073250 4.782511e-06
0.073500 4.386844e-06
0.073750 3.990006e-06
0.074000 3.592180e-06
0.074250 3.193545e-06
0.074500 2.794282e-06
0.074750 2.394573e-06
0.075000 1.994598e-06
0.075250 1.594537e-06
0.075500 1.194570e-06
0.075750 7.948762e-07
0.076000 3.956354e-07
0.076250 -2.974239e-09
0.076500 -4.007748e-07
0.076750 -7.975892e-07
0.077000 -1.193241e-06
0.077250 -1.587555e-06
0.077500 -1.980356e-06
0.077750 -2.371471e-06
0.078000 -2.760728e-06
0.078250 -3.147955e-06
0.078500 -3.532983e-06
0.078750 -3.915643e-06
0.079000 -4.295767e-06
0.079250 -4.673191e-06
0.079500 -5.047749e-06
0.079750 -5.419279e-06
0.080000 -5.787621e-06
0.080250 -6.152615e-06
0.080500 -6.514103e-06
0.080750 -6.871932e-06
0.081000 -7.225946e-06
0.081250 -7.575995e-06
0.081500 -7.921929e-06
0.081750 -8.263601e-06
0.082000 -8.600866e-06
0.082250 -8.933582e-06
0.082500 -9.261607e-06
0.082750 -9.584804e-06
0.083000 -9.903038e-06
0.083250 -1.021617e-05
0.083500 -1.052408e-05
0.083750 -1.082664e-05
0.084000 -1.112371e-05
0.084250 -1.141518e-05
0.084500 -1.170093e-05
0.084750 -1.198083e-05
0.085000 -1.225479e-05
0.085250 -1.252267e-05
0.085500 -1.278439e-05
0.085750 -1.303982e-05
0.086000 -1.328887e-05
0.086250 -1.353144e-05
0.086500 -1.376744e-05
0.086750 -1.399676e-05
0.087000 -1.421932e-05
0.087250 -1.443504e-05
0.087500 -1.464383e-05
0.087750 -1.484561e-05
0.088000 -1.504029e-05
0.088250 -1.522782e-05
0.088500 -1.540812e-05
0.088750 -1.558112e-05
0.089000 -1.574676e-05
0.089250 -1.590498e-05
0.089500 -1.605572e-05
0.089750 -1.619893e-05
0.090000 -1.633455e-05
0.090250 -1.646256e-05
0.090500 -1.658289e-05
0.090750 -1.669551e-05
0.091000 -1.680039e-05
0.091250 -1.689749e-05
0.091500 -1.698679e-05
0.091750 -1.706825e-05
0.092000 -1.714187e-05
0.092250 -1.720762e-05
0.092500 -1.726548e-05
0.092750 -1.731544e-05
0.093000 -1.735751e-05
0.093250 -1.739167e-05
0.093500 -1.741792e-05
0.093750 -1.743627e-05
0.094000 -1.744673e-05
0.094250 -1.744930e-05
0.094500 -1.744399e-05
0.094750 -1.743083e-05
0.095000 -1.740984e-05
0.095250 -1.738104e-05
0.095500 -1.734446e-05
0.095750 -1.730013e-05
0.096000 -1.724808e-05
0.096250 -1.718835e-05
0.096500 -1.712098e-05
0.096750 -1.704602e-05
0.097000 -1.696352e-05
0.097250 -1.687352e-05
0.097500 -1.677608e-05
0.097750 -1.667126e-05
0.098000 -1.655912e-05
0.098250 -1.643972e-05
0.098500 -1.631314e-05
0.098750 -1.617943e-05
0.099000 -1.603867e-05
0.099250 -1.589094e-05
0.099500 -1.573632e-05
0.099750 -1.557489e-05
0.100000 -1.540673e-05
0.100250 -1.523193e-05
0.100500 -1.505058e-05
0.100750 -1.486279e-05
0.101000 -1.466863e-05
0.101250 -1.446821e-05
0.101500 -1.426163e-05
0.101750 -1.404899e-05
0.102000 -1.383041e-05
0.102250 -1.360598e-05
0.102500 -1.337582e-05
0.102750 -1.314005e-05
0.103000 -1.289877e-05
0.103250 -1.265211e-05
0.103500 -1.240018e-05
0.103750 -1.214311e-05
0.104000 -1.188102e-05
0.104250 -1.161404e-05
0.104500 -1.134230e-05
0.104750 -1.106592e-05
0.105000 -1.078504e-05
0.105250 -1.049979e-05
0.105500 -1.021030e-05
0.105750 -9.916712e-06
0.106000 -9.619166e-06
0.106250 -9.317799e-06
0.106500 -9.012753e-06
0.106750 -8.704170e-06
0.107000 -8.392193e-06
0.107250 -8.076968e-06
0.107500 -7.758641e-06
0.107750 -7.437359e-06
0.108000 -7.113270e-06
0.108250 -6.786523e-06
0.108500 -6.457269e-06
0.108750 -6.125657e-06
0.109000 -5.791841e-06
0.109250 -5.455971e-06
0.109500 -5.118202e-06
0.109750 -4.778686e-06
0.110000 -4.437578e-06
0.110250 -4.095031e-06
0.110500 -3.751201e-06
0.110750 -3.406242e-06
0.111000 -3.060309e-06
0.111250 -2.713558e-06
0.111500 -2.366144e-06
0.111750 -2.018222e-06
0.112000 -1.669948e-06
0.112250 -1.321477e-06
0.112500 -9.729625e-07
0.112750 -6.245603e-07
0.113000 -2.764243e-07
0.113250 7.129166e-08
0.113500 4.184343e-07
0.113750 7.648509e-07
0.114000 1.110389e-06
0.114250 1.454898e-06
0.114500 1.798227e-06
0.114750 2.140225e-06
0.115000 2.480744e-06
0.115250 2.819636e-06
0.115500 3.156753e-06
0.115750 3.491950e-06
0.116000 3.825082e-06
0.116250 4.156006e-06
0.116500 4.484578e-06
0.116750 4.810659e-06
0.117000 5.134107e-06
0.117250 5.454785e-06
0.117500 5.772557e-06
0.117750 6.087286e-06
0.118000 6.398840e-06
0.118250 6.707087e-06
0.118500 7.011895e-06
0.118750 7.313138e-06
0.119000 7.610688e-06
0.119250 7.904420e-06
0.119500 8.194212e-06
0.119750 8.479944e-06
0.120000 8.761495e-06
0.120250 9.038750e-06
0.120500 9.311593e-06
0.120750 9.579914e-06
0.121000 9.843600e-06
0.121250 1.010254e-05
0.121500 1.035664e-05
0.121750 1.060579e-05
0.122000 1.084989e-05
0.122250 1.108883e-05
0.122500 1.132253e-05
0.122750 1.155089e-05
0.123000 1.177382e-05
0.123250 1.199123e-05
0.123500 1.220304e-05
0.123750 1.240916e-05
0.124000 1.260951e-05
0.124250 1.280402e-05
0.124500 1.299260e-05
0.124750 1.317520e-05
0.125000 1.335172e-05
0.125250 1.352212e-05
0.125500 1.368633e-05
0.125750 1.384428e-05
0.126000 1.399592e-05
0.126250 1.414120e-05
0.126500 1.428005e-05
0.126750 1.441243e-05
0.127000 1.453830e-05
0.127250 1.465761e-05
0.127500 1.477032e-05
0.127750 1.487639e-05
0.128000 1.497580e-05
0.128250 1.506849e-05
0.128500 1.515446e-05
0.128750 1.523367e-05
0.129000 1.530610e-05
0.129250 1.537173e-05
0.129500 1.543055e-05
0.129750 1.548253e-05
0.130000 1.552768e-05
0.130250 1.556598e-05
0.130500 1.559743e-05
0.130750 1.562203e-05
0.131000 1.563978e-05
0.131250 1.565069e-05
0.131500 1.565475e-05
0.131750 1.565199e-05
0.132000 1.564242e-05
0.132250 1.562605e-05
0.132500 1.560290e-05
0.132750 1.557300e-05
0.133000 1.553638e-05
0.133250 1.549305e-05
0.133500 1.544305e-05
0.133750 1.538642e-05
0.134000 1.532320e-05
0.134250 1.525341e-05
0.134500 1.517711e-05
0.134750 1.509435e-05
0.135000 1.500516e-05
0.135250 1.490960e-05
0.135500 1.480772e-05
0.135750 1.469959e-05
0.136000 1.458525e-05
0.136250 1.446478e-05
0.136500 1.433823e-05
0.136750 1.420567e-05
0.137000 1.406718e-05
0.137250 1.392281e-05
0.137500 1.377266e-05
0.137750 1.361678e-05
0.138000 1.345527e-05
0.138250 1.328820e-05
0.138500 1.311566e-05
0.138750 1.293774e-05
0.139000 1.275451e-05
0.139250 1.256607e-05
0.139500 1.237252e-05
0.139750 1.217394e-05
0.140000 1.197044e-05
0.140250 1.176211e-05
0.140500 1.154905e-05
0.140750 1.133137e-05
0.141000 1.110916e-05
0.141250 1.088254e-05
0.141500 1.065161e-05
0.141750 1.041648e-05
0.142000 1.017726e-05
0.142250 9.934063e-06
0.142500 9.687005e-06
0.142750 9.436199e-06
0.143000 9.181763e-06
0.143250 8.923814e-06
0.143500 8.662473e-06
0.143750 8.397858e-06
0.144000 8.130094e-06
0.144250 7.859302e-06
0.144500 7.585606e-06
0.144750 7.309133e-06
0.145000 7.030007e-06
0.145250 6.748357e-06
0.145500 6.464309e-06
0.145750 6.177993e-06
0.146000 5.889538e-06
0.146250 5.599075e-06
0.146500 5.306733e-06
0.146750 5.012645e-06
0.147000 4.716942e-06
0.147250 4.419756e-06
0.147500 4.121221e-06
0.147750 3.821469e-06
0.148000 3.520634e-06
0.148250 3.218848e-06
0.148500 2.916247e-06
0.148750 2.612963e-06
0.149000 2.309131e-06
0.149250 2.004884e-06
0.149500 1.700355e-06
0.149750 1.395680e-06
0.150000 1.090991e-06
0.150250 7.864204e-07
0.150500 4.821022e-07
0.150750 1.781687e-07
0.151000 -1.252482e-07
0.151250 -4.280168e-07
0.151500 -7.300061e-07
0.151750 -1.031086e-06
0.152000 -1.331126e-06
0.152250 -1.629997e-06
0.152500 -1.927571e-06
0.152750 -2.223721e-06
0.153000 -2.518319e-06
0.153250 -2.811240e-06
0.153500 -3.102359e-06
0.153750 -3.391553e-06
0.154000 -3.678698e-06
0.154250 -3.963674e-06
0.154500 -4.246359e-06
0.154750 -4.526635e-06
0.155000 -4.804383e-06
0.155250 -5.079488e-06
0.155500 -5.351834e-06
0.155750 -5.621307e-06
0.156000 -5.887796e-06
0.156250 -6.151188e-06
0.156500 -6.411376e-06
0.156750 -6.668251e-06
0.157000 -6.921708e-06
0.157250 -7.171642e-06
0.157500 -7.417951e-06
0.157750 -7.660534e-06
0.158000 -7.899292e-06
0.158250 -8.134129e-06
0.158500 -8.364948e-06
0.158750 -8.591657e-06
0.159000 -8.814165e-06
0.159250 -9.032382e-06
0.159500 -9.246221e-06
0.159750 -9.455597e-06
0.160000 -9.660427e-06
0.160250 -9.860630e-06
0.160500 -1.005613e-05
0.160750 -1.024684e-05
0.161000 -1.043270e-05
0.161250 -1.061363e-05
0.161500 -1.078956e-05
0.161750 -1.096043e-05
0.162000 -1.112616e-05
0.162250 -1.128670e-05
0.162500 -1.144199e-05
0.162750 -1.159197e-05
0.163000 -1.173657e-05
0.163250 -1.187576e-05
0.163500 -1.200948e-05
0.163750 -1.213767e-05
0.164000 -1.226031e-05
0.164250 -1.237733e-05
0.164500 -1.248870e-05
0.164750 -1.259439e-05
0.165000 -1.269435e-05
0.165250 -1.278856e-05
0.165500 -1.287699e-05
0.165750 -1.295960e-05
0.166000 -1.303637e-05
0.166250 -1.310727e-05
0.166500 -1.317230e-05
0.166750 -1.323143e-05
0.167000 -1.328464e-05
0.167250 -1.333192e-05
0.167500 -1.337327e-05
0.167750 -1.340868e-05
0.168000 -1.343814e-05
0.168250 -1.346164e-05
0.168500 -1.347920e-05
0.168750 -1.349081e-05
0.169000 -1.349649e-05
0.169250 -1.349623e-05
0.169500 -1.349004e-05
0.169750 -1.347796e-05
0.170000 -1.345998e-05
0.170250 -1.343612e-05
0.170500 -1.340642e-05
0.170750 -1.337088e-05
0.171000 -1.332955e-05
0.171250 -1.328244e-05
0.171500 -1.322959e-05
0.171750 -1.317103e-05
0.172000 -1.310679e-05
0.172250 -1.303693e-05
0.172500 -1.296146e-05
0.172750 -1.288045e-05
0.173000 -1.279393e-05
0.173250 -1.270194e-05
0.173500 -1.260456e-05
0.173750 -1.250181e-05
0.174000 -1.239376e-05
0.174250 -1.228047e-05
0.174500 -1.216198e-05
0.174750 -1.203838e-05
0.175000 -1.190970e-05
0.175250 -1.177603e-05
0.175500 -1.163743e-05
0.175750 -1.149397e-05
0.176000 -1.134571e-05
0.176250 -1.119274e-05
0.176500 -1.103512e-05
0.176750 -1.087294e-05
0.177000 -1.070627e-05
0.177250 -1.053519e-05
0.177500 -1.035978e-05
0.177750 -1.018013e-05
0.178000 -9.996328e-06
0.178250 -9.808456e-06
0.178500 -9.616603e-06
0.178750 -9.420860e-06
0.179000 -9.221319e-06
0.179250 -9.018073e-06
0.179500 -8.811217e-06
0.179750 -8.600847e-06
0.180000 -8.387060e-06
0.180250 -8.169956e-06
0.180500 -7.949634e-06
0.180750 -7.726195e-06
0.181000 -7.499742e-06
0.181250 -7.270379e-06
0.181500 -7.038209e-06
0.181750 -6.803338e-06
0.182000 -6.565873e-06
0.182250 -6.325922e-06
0.182500 -6.083592e-06
0.182750 -5.838993e-06
0.183000 -5.592234e-06
0.183250 -5.343426e-06
0.183500 -5.092681e-06
0.183750 -4.840111e-06
0.184000 -4.585827e-06
0.184250 -4.329944e-06
0.184500 -4.072573e-06
0.184750 -3.813831e-06
0.185000 -3.553830e-06
0.185250 -3.292685e-06
0.185500 -3.030512e-06
0.185750 -2.767425e-06
0.186000 -2.503540e-06
0.186250 -2.238972e-06
0.186500 -1.973836e-06
0.186750 -1.708249e-06
0.187000 -1.442326e-06
0.187250 -1.176182e-06
0.187500 -9.099331e-07
0.187750 -6.436936e-07
0.188000 -3.775787e-07
0.188250 -1.117032e-07
0.188500 1.538186e-07
0.188750 4.188728e-07
0.189000 6.833458e-07
0.189250 9.471244e-07
0.189500 1.210096e-06
0.189750 1.472149e-06
0.190000 1.733172e-06
0.190250 1.993053e-06
0.190500 2.251684e-06
0.190750 2.508954e-06
0.191000 2.764755e-06
0.191250 3.018979e-06
0.191500 3.271520e-06
0.191750 3.522272e-06
0.192000 3.771130e-06
0.192250 4.017990e-06
0.192500 4.262749e-06
0.192750 4.505306e-06
0.193000 4.745559e-06
0.193250 4.983410e-06
0.193500 5.218760e-06
0.193750 5.451513e-06
0.194000 5.681573e-06
0.194250 5.908845e-06
0.194500 6.133238e-06
0.194750 6.354658e-06
0.195000 6.573017e-06
0.195250 6.788225e-06
0.195500 7.000196e-06
0.195750 7.208845e-06
0.196000 7.414087e-06
0.196250 7.615840e-06
0.196500 7.814024e-06
0.196750 8.008560e-06
0.197000 8.199370e-06
0.197250 8.386380e-06
0.197500 8.569515e-06
0.197750 8.748704e-06
0.198000 8.923877e-06
0.198250 9.094966e-06
0.198500 9.261904e-06
0.198750 9.424628e-06
0.199000 9.583074e-06
0.199250 9.737183e-06
0.199500 9.886895e-06
0.199750 1.003216e-05
0.200000 1.017291e-05
0.200250 1.030910e-05
0.200500 1.044069e-05
0.200750 1.056761e-05
0.201000 1.068983e-05
0.201250 1.080731e-05
0.201500 1.091999e-05
0.201750 1.102784e-05
0.202000 1.113083e-05
0.202250 1.122891e-05
0.202500 1.132206e-05
0.202750 1.141024e-05
0.203000 1.149343e-05
0.203250 1.157159e-05
0.203500 1.164470e-05
0.203750 1.171274e-05
0.204000 1.177570e-05
0.204250 1.183354e-05
0.204500 1.188627e-05
0.204750 1.193385e-05
0.205000 1.197629e-05
0.205250 1.201357e-05
0.205500 1.204569e-05
0.205750 1.207264e-05
0.206000 1.209442e-05
0.206250 1.211103e-05
0.206500 1.212247e-05
0.206750 1.212875e-05
0.207000 1.212987e-05
0.207250 1.212585e-05
0.207500 1.211668e-05
0.207750 1.210240e-05
0.208000 1.208300e-05
0.208250 1.205852e-05
0.208500 1.202896e-05
0.208750 1.199435e-05
0.209000 1.195472e-05
0.209250 1.191009e-05
0.209500 1.186049e-05
0.209750 1.180594e-05
0.210000 1.174649e-05
0.210250 1.168216e-05
0.210500 1.161300e-05
0.210750 1.153904e-05
0.211000 1.146032e-05
0.211250 1.137688e-05
0.211500 1.128877e-05
0.211750 1.119603e-05
0.212000 1.109871e-05
0.212250 1.099687e-05
0.212500 1.089055e-05
0.212750 1.077981e-05
0.213000 1.066470e-05
0.213250 1.054528e-05
0.213500 1.042161e-05
0.213750 1.029374e-05
0.214000 1.016176e-05
0.214250 1.002570e-05
0.214500 9.885649e-06
0.214750 9.741665e-06
0.215000 9.593818e-06
0.215250 9.442179e-06
0.215500 9.286820e-06
0.215750 9.127813e-06
0.216000 8.965233e-06
0.216250 8.799157e-06
0.216500 8.629662e-06
0.216750 8.456825e-06
0.217000 8.280728e-06
0.217250 8.101452e-06
0.217500 7.919079e-06
0.217750 7.733692e-06
0.218000 7.545377e-06
0.218250 7.354219e-06
0.218500 7.160306e-06
0.218750 6.963724e-06
0.219000 6.764563e-06
0.219250 6.562913e-06
0.219500 6.358864e-06
0.219750 6.152509e-06
0.220000 5.943939e-06
0.220250 5.733247e-06
0.220500 5.520528e-06
0.220750 5.305876e-06
0.221000 5.089386e-06
0.221250 4.871154e-06
0.221500 4.651277e-06
0.221750 4.429852e-06
0.222000 4.206975e-06
0.222250 3.982745e-06
0.222500 3.757260e-06
0.222750 3.530618e-06
0.223000 3.302919e-06
0.223250 3.074261e-06
0.223500 2.844744e-06
0.223750 2.614468e-06
0.224000 2.383532e-06
0.224250 2.152036e-06
0.224500 1.920080e-06
0.224750 1.687764e-06
0.225000 1.455187e-06
0.225250 1.222450e-06
0.225500 9.896512e-07
0.225750 7.568912e-07
0.226000 5.242688e-07
0.226250 2.918831e-07
0.226500 5.983285e-08
0.226750 -1.717836e-07
0.227000 -4.028681e-07
0.227250 -6.333231e-07
0.227500 -8.630515e-07
0.227750 -1.091957e-06
0.228000 -1.319942e-06
0.228250 -1.546913e-06
0.228500 -1.772773e-06
0.228750 -1.997429e-06
0.229000 -2.220787e-06
0.229250 -2.442754e-06
0.229500 -2.663239e-06
0.229750 -2.882149e-06
0.230000 -3.099394e-06
0.230250 -3.314885e-06
0.230500 -3.528533e-06
0.230750 -3.740250e-06
0.231000 -3.949950e-06
0.231250 -4.157546e-06
0.231500 -4.362955e-06
0.231750 -4.566092e-06
0.232000 -4.766875e-06
0.232250 -4.965223e-06
0.232500 -5.161056e-06
0.232750 -5.354295e-06
0.233000 -5.544862e-06
0.233250 -5.732681e-06
0.233500 -5.917677e-06
0.233750 -6.099777e-06
0.234000 -6.278907e-06
0.234250 -6.454997e-06
0.234500 -6.627978e-06
0.234750 -6.797782e-06
0.235000 -6.964341e-06
0.235250 -7.127592e-06
0.235500 -7.287470e-06
0.235750 -7.443913e-06
0.236000 -7.596862e-06
0.236250 -7.746257e-06
0.236500 -7.892042e-06
0.236750 -8.034160e-06
0.237000 -8.172559e-06
0.237250 -8.307185e-06
0.237500 -8.437989e-06
0.237750 -8.564921e-06
0.238000 -8.687935e-06
0.238250 -8.806986e-06
0.238500 -8.922029e-06
0.238750 -9.033024e-06
0.239000 -9.139930e-06
0.239250 -9.242710e-06
0.239500 -9.341327e-06
0.239750 -9.435747e-06
0.240000 -9.525937e-06
0.240250 -9.611867e-06
0.240500 -9.693507e-06
0.240750 -9.770832e-06
0.241000 -9.843815e-06
0.241250 -9.912434e-06
0.241500 -9.976667e-06
0.241750 -1.003650e-05
0.242000 -1.009190e-05
0.242250 -1.014287e-05
0.242500 -1.018939e-05
0.242750 -1.023144e-05
0.243000 -1.026902e-05
0.243250 -1.030212e-05
0.243500 -1.033074e-05
0.243750 -1.035486e-05
0.244000 -1.037449e-05
0.244250 -1.038963e-05
0.244500 -1.040027e-05
0.244750 -1.040643e-05
0.245000 -1.040811e-05
0.245250 -1.040531e-05
0.245500 -1.039804e-05
0.245750 -1.038633e-05
0.246000 -1.037017e-05
0.246250 -1.034958e-05
0.246500 -1.032459e-05
0.246750 -1.029520e-05
0.247000 -1.026145e-05
0.247250 -1.022334e-05
0.247500 -1.018091e-05
0.247750 -1.013419e-05
0.248000 -1.008319e-05
0.248250 -1.002796e-05
0.248500 -9.968509e-06
0.248750 -9.904885e-06
0.249000 -9.837118e-06
0.249250 -9.765245e-06
0.249500 -9.689305e-06
0.249750 -9.609335e-06
0.250000 -9.525379e-06
0.250250 -9.437477e-06
0.250500 -9.345676e-06
0.250750 -9.250021e-06
0.251000 -9.150560e-06
0.251250 -9.047341e-06
0.251500 -8.940415e-06
0.251750 -8.829835e-06
0.252000 -8.715654e-06
0.252250 -8.597926e-06
0.252500 -8.476709e-06
0.252750 -8.352060e-06
0.253000 -8.224038e-06
0.253250 -8.092704e-06
0.253500 -7.958118e-06
0.253750 -7.820345e-06
0.254000 -7.679448e-06
0.254250 -7.535493e-06
0.254500 -7.388546e-06
0.254750 -7.238675e-06
0.255000 -7.085950e-06
0.255250 -6.930438e-06
0.255500 -6.772213e-06
0.255750 -6.611345e-06
0.256000 -6.447908e-06
0.256250 -6.281976e-06
0.256500 -6.113623e-06
0.256750 -5.942926e-06
0.257000 -5.769960e-06
0.257250 -5.594803e-06
0.257500 -5.417533e-06
0.257750 -5.238230e-06
0.258000 -5.056973e-06
0.258250 -4.873842e-06
0.258500 -4.688918e-06
0.258750 -4.502282e-06
0.259000 -4.314018e-06
0.259250 -4.124207e-06
0.259500 -3.932933e-06
0.259750 -3.740280e-06
0.260000 -3.546331e-06
0.260250 -3.351171e-06
0.260500 -3.154884e-06
0.260750 -2.957557e-06
0.261000 -2.759273e-06
0.261250 -2.560120e-06
0.261500 -2.360183e-06
0.261750 -2.159548e-06
0.262000 -1.958300e-06
0.262250 -1.756527e-06
0.262500 -1.554315e-06
0.262750 -1.351750e-06
0.263000 -1.148919e-06
0.263250 -9.459066e-07
0.263500 -7.428007e-07
0.263750 -5.396869e-07
0.264000 -3.366511e-07
0.264250 -1.337791e-07
0.264500 6.884364e-08
0.264750 2.711318e-07
0.265000 4.730004e-07
0.265250 6.743649e-07
0.265500 8.751410e-07
0.265750 1.075245e-06
0.266000 1.274593e-06
0.266250 1.473103e-06
0.266500 1.670691e-06
0.266750 1.867277e-06
0.267000 2.062779e-06
0.267250 2.257115e-06
0.267500 2.450207e-06
0.267750 2.641975e-06
0.268000 2.832339e-06
0.268250 3.021223e-06
0.268500 3.208548e-06
0.268750 3.394239e-06
0.269000 3.578221e-06
0.269250 3.760417e-06
0.269500 3.940755e-06
0.269750 4.119162e-06
0.270000 4.295566e-06
0.270250 4.469896e-06
0.270500 4.642082e-06
0.270750 4.812055e-06
0.271000 4.979747e-06
0.271250 5.145092e-06
0.271500 5.308024e-06
0.271750 5.468479e-06
0.272000 5.626393e-06
0.272250 5.781704e-06
0.272500 5.934352e-06
0.272750 6.084276e-06
0.273000 6.231418e-06
0.273250 6.375721e-06
0.273500 6.517130e-06
0.273750 6.655589e-06
0.274000 6.791047e-06
0.274250 6.923450e-06
0.274500 7.052748e-06
0.274750 7.178894e-06
0.275000 7.301838e-06
0.275250 7.421535e-06
0.275500 7.537940e-06
0.275750 7.651010e-06
0.276000 7.760703e-06
0.276250 7.866980e-06
0.276500 7.969801e-06
0.276750 8.069129e-06
0.277000 8.164929e-06
0.277250 8.257166e-06
0.277500 8.345808e-06
0.277750 8.430824e-06
0.278000 8.512185e-06
0.278250 8.589863e-06
0.278500 8.663832e-06
0.278750 8.734068e-06
0.279000 8.800547e-06
0.279250 8.863248e-06
0.279500 8.922151e-06
0.279750 8.977239e-06
0.280000 9.028495e-06
0.280250 9.075905e-06
0.280500 9.119454e-06
0.280750 9.159133e-06
0.281000 9.194931e-06
0.281250 9.226840e-06
0.281500 9.254853e-06
0.281750 9.278967e-06
0.282000 9.299176e-06
0.282250 9.315481e-06
0.282500 9.327881e-06
0.282750 9.336378e-06
0.283000 9.340976e-06
0.283250 9.341679e-06
0.283500 9.338494e-06
0.283750 9.331429e-06
0.284000 9.320495e-06
0.284250 9.305703e-06
0.284500 9.287066e-06
0.284750 9.264598e-06
0.285000 9.238317e-06
0.285250 9.208240e-06
0.285500 9.174387e-06
0.285750 9.136778e-06
0.286000 9.095436e-06
0.286250 9.050386e-06
0.286500 9.001652e-06
0.286750 8.949262e-06
0.287000 8.893245e-06
0.287250 8.833630e-06
0.287500 8.770449e-06
0.287750 8.703736e-06
0.288000 8.633524e-06
0.288250 8.559849e-06
0.288500 8.482749e-06
0.288750 8.402262e-06
0.289000 8.318428e-06
0.289250 8.231289e-06
0.289500 8.140886e-06
0.289750 8.047264e-06
0.290000 7.950467e-06
0.290250 7.850543e-06
0.290500 7.747539e-06
0.290750 7.641504e-06
0.291000 7.532487e-06
0.291250 7.420540e-06
0.291500 7.305716e-06
0.291750 7.188067e-06
0.292000 7.067648e-06
0.292250 6.944515e-06
0.292500 6.818725e-06
0.292750 6.690334e-06
0.293000 6.559402e-06
0.293250 6.425988e-06
0.293500 6.290153e-06
0.293750 6.151958e-06
0.294000 6.011465e-06
0.294250 5.868738e-06
0.294500 5.723841e-06
0.294750 5.576838e-06
0.295000 5.427794e-06
0.295250 5.276777e-06
0.295500 5.123853e-06
0.295750 4.969089e-06
0.296000 4.812555e-06
0.296250 4.654318e-06
0.296500 4.494449e-06
0.296750 4.333017e-06
0.297000 4.170094e-06
0.297250 4.005749e-06
0.297500 3.840055e-06
0.297750 3.673084e-06
0.298000 3.504909e-06
0.298250 3.335600e-06
0.298500 3.165233e-06
0.298750 2.993881e-06
0.299000 2.821616e-06
0.299250 2.648514e-06
0.299500 2.474647e-06
0.299750 2.300091e-06
0.300000 2.124920e-06
0.300250 1.949209e-06
0.300500 1.773032e-06
0.300750 1.596465e-06
0.301000 1.419581e-06
0.301250 1.242456e-06
0.301500 1.065164e-06
0.301750 8.877802e-07
0.302000 7.103792e-07
0.302250 5.330355e-07
0.302500 3.558231e-07
0.302750 1.788163e-07
0.303000 2.088908e-09
0.303250 -1.742854e-07
0.303500 -3.502334e-07
0.303750 -5.256819e-07
0.304000 -7.005583e-07
0.304250 -8.747902e-07
0.304500 -1.048306e-06
0.304750 -1.221034e-06
0.305000 -1.392903e-06
0.305250 -1.563842e-06
0.305500 -1.733783e-06
0.305750 -1.902654e-06
0.306000 -2.070388e-06
0.306250 -2.236916e-06
0.306500 -2.402170e-06
0.306750 -2.566083e-06
0.307000 -2.728590e-06
0.307250 -2.889624e-06
0.307500 -3.049120e-06
0.307750 -3.207016e-06
0.308000 -3.363246e-06
0.308250 -3.517749e-06
0.308500 -3.670463e-06
0.308750 -3.821328e-06
0.309000 -3.970282e-06
0.309250 -4.117269e-06
0.309500 -4.262228e-06
0.309750 -4.405104e-06
0.310000 -4.545840e-06
0.310250 -4.684380e-06
0.310500 -4.820672e-06
0.310750 -4.954661e-06
0.311000 -5.086296e-06
0.311250 -5.215526e-06
0.311500 -5.342301e-06
0.311750 -5.466572e-06
0.312000 -5.588292e-06
0.312250 -5.707414e-06
0.312500 -5.823894e-06
0.312750 -5.937686e-06
0.313000 -6.048749e-06
0.313250 -6.157040e-06
0.313500 -6.262520e-06
0.313750 -6.365148e-06
0.314000 -6.464888e-06
0.314250 -6.561702e-06
0.314500 -6.655556e-06
0.314750 -6.746415e-06
0.315000 -6.834247e-06
0.315250 -6.919020e-06
0.315500 -7.000704e-06
0.315750 -7.079272e-06
0.316000 -7.154694e-06
0.316250 -7.226946e-06
0.316500 -7.296003e-06
0.316750 -7.361841e-06
0.317000 -7.424439e-06
0.317250 -7.483777e-06
0.317500 -7.539835e-06
0.317750 -7.592597e-06
0.318000 -7.642045e-06
0.318250 -7.688165e-06
0.318500 -7.730944e-06
0.318750 -7.770370e-06
0.319000 -7.806432e-06
0.319250 -7.839121e-06
0.319500 -7.868430e-06
0.319750 -7.894353e-06
0.320000 -7.916884e-06
0.320250 -7.936020e-06
0.320500 -7.951761e-06
0.320750 -7.964104e-06
0.321000 -7.973051e-06
0.321250 -7.978604e-06
0.321500 -7.980768e-06
0.321750 -7.979547e-06
0.322000 -7.974948e-06
0.322250 -7.966979e-06
0.322500 -7.955649e-06
0.322750 -7.940970e-06
0.323000 -7.922953e-06
0.323250 -7.901612e-06
0.323500 -7.876962e-06
0.323750 -7.849019e-06
0.324000 -7.817801e-06
0.324250 -7.783327e-06
0.324500 -7.745617e-06
0.324750 -7.704693e-06
0.325000 -7.660578e-06
0.325250 -7.613296e-06
0.325500 -7.562873e-06
0.325750 -7.509335e-06
0.326000 -7.452711e-06
0.326250 -7.393030e-06
0.326500 -7.330322e-06
0.326750 -7.264620e-06
0.327000 -7.195956e-06
0.327250 -7.124364e-06
0.327500 -7.049881e-06
0.327750 -6.972541e-06
0.328000 -6.892384e-06
0.328250 -6.809448e-06
0.328500 -6.723772e-06
0.328750 -6.635398e-06
0.329000 -6.544368e-06
0.329250 -6.450724e-06
0.329500 -6.354512e-06
0.329750 -6.255775e-06
0.330000 -6.154561e-06
0.330250 -6.050916e-06
0.330500 -5.944888e-06
0.330750 -5.836527e-06
0.331000 -5.725882e-06
0.331250 -5.613004e-06
0.331500 -5.497944e-06
0.331750 -5.380756e-06
0.332000 -5.261492e-06
0.332250 -5.140206e-06
0.332500 -5.016955e-06