-0.138818 1.593150e-05
-0.138568 1.643633e-05
-0.138318 1.693541e-05
-0.138068 1.742859e-05
-0.137818 1.791570e-05
-0.137568 1.839659e-05
-0.137318 1.887109e-05
-0.137068 1.933905e-05
-0.136818 1.980032e-05
-0.136568 2.025475e-05
-0.136318 2.070219e-05
-0.136068 2.114250e-05
-0.135818 2.157553e-05
-0.135568 2.200114e-05
-0.135318 2.241919e-05
-0.135068 2.282955e-05
-0.134818 2.323209e-05
-0.134568 2.362668e-05
-0.134318 2.401318e-05
-0.134068 2.439148e-05
-0.133818 2.476145e-05
-0.133568 2.512298e-05
-0.133318 2.547595e-05
-0.133068 2.582024e-05
-0.132818 2.615574e-05
-0.132568 2.648236e-05
-0.132318 2.679998e-05
-0.132068 2.710850e-05
-0.131818 2.740783e-05
-0.131568 2.769787e-05
-0.131318 2.797853e-05
-0.131068 2.824972e-05
-0.130818 2.851136e-05
-0.130568 2.876336e-05
-0.130318 2.900564e-05
-0.130068 2.923814e-05
-0.129818 2.946078e-05
-0.129568 2.967348e-05
-0.129318 2.987619e-05
-0.129068 3.006884e-05
-0.128818 3.025137e-05
-0.128568 3.042373e-05
-0.128318 3.058587e-05
-0.128068 3.073774e-05
-0.127818 3.087929e-05
-0.127568 3.101048e-05
-0.127318 3.113127e-05
-0.127068 3.124163e-05
-0.126818 3.134153e-05
-0.126568 3.143095e-05
-0.126318 3.150984e-05
-0.126068 3.157821e-05
-0.125818 3.163602e-05
-0.125568 3.168327e-05
-0.125318 3.171995e-05
-0.125068 3.174604e-05
-0.124818 3.176156e-05
-0.124568 3.176648e-05
-0.124318 3.176084e-05
-0.124068 3.174462e-05
-0.123818 3.171784e-05
-0.123568 3.168052e-05
-0.123318 3.163267e-05
-0.123068 3.157431e-05
-0.122818 3.150548e-05
-0.122568 3.142620e-05
-0.122318 3.133649e-05
-0.122068 3.123641e-05
-0.121818 3.112598e-05
-0.121568 3.100525e-05
-0.121318 3.087427e-05
-0.121068 3.073308e-05
-0.120818 3.058174e-05
-0.120568 3.042030e-05
-0.120318 3.024882e-05
-0.120068 3.006736e-05
-0.119818 2.987600e-05
-0.119568 2.967480e-05
-0.119318 2.946383e-05
-0.119068 2.924316e-05
-0.118818 2.901289e-05
-0.118568 2.877308e-05
-0.118318 2.852383e-05
-0.118068 2.826521e-05
-0.117818 2.799734e-05
-0.117568 2.772029e-05
-0.117318 2.743416e-05
-0.117068 2.713906e-05
-0.116818 2.683508e-05
-0.116568 2.652234e-05
-0.116318 2.620095e-05
-0.116068 2.587101e-05
-0.115818 2.553264e-05
-0.115568 2.518595e-05
-0.115318 2.483107e-05
-0.115068 2.446812e-05
-0.114818 2.409722e-05
-0.114568 2.371851e-05
-0.114318 2.333211e-05
-0.114068 2.293815e-05
-0.113818 2.253677e-05
-0.113568 2.212812e-05
-0.113318 2.171231e-05
-0.113068 2.128951e-05
-0.112818 2.085986e-05
-0.112568 2.042349e-05
-0.112318 1.998056e-05
-0.112068 1.953123e-05
-0.111818 1.907564e-05
-0.111568 1.861395e-05
-0.111318 1.814631e-05
-0.111068 1.767288e-05
-0.110818 1.719384e-05
-0.110568 1.670933e-05
-0.110318 1.621952e-05
-0.110068 1.572457e-05
-0.109818 1.522466e-05
-0.109568 1.471996e-05
-0.109318 1.421063e-05
-0.109068 1.369684e-05
-0.108818 1.317878e-05
-0.108568 1.265660e-05
-0.108318 1.213050e-05
-0.108068 1.160064e-05
-0.107818 1.106720e-05
-0.107568 1.053037e-05
-0.107318 9.990323e-06
-0.107068 9.447240e-06
-0.106818 8.901304e-06
-0.106568 8.352698e-06
-0.106318 7.801605e-06
-0.106068 7.248211e-06
-0.105818 6.692699e-06
-0.105568 6.135257e-06
-0.105318 5.576069e-06
-0.105068 5.015323e-06
-0.104818 4.453206e-06
-0.104568 3.889906e-06
-0.104318 3.325609e-06
-0.104068 2.760505e-06
-0.103818 2.194780e-06
-0.103568 1.628624e-06
-0.103318 1.062225e-06
-0.103068 4.957699e-07
-0.102818 -7.055207e-08
-0.102568 -6.365533e-07
-0.102318 -1.202046e-06
-0.102068 -1.766843e-06
-0.101818 -2.330756e-06
-0.101568 -2.893600e-06
-0.101318 -3.455188e-06
-0.101068 -4.015333e-06
-0.100818 -4.573852e-06
-0.100568 -5.130560e-06
-0.100318 -5.685272e-06
-0.100068 -6.237807e-06
-0.099818 -6.787981e-06
-0.099568 -7.335613e-06
-0.099318 -7.880523e-06
-0.099068 -8.422533e-06
-0.098818 -8.961462e-06
-0.098568 -9.497135e-06
-0.098318 -1.002938e-05
-0.098068 -1.055801e-05
-0.097818 -1.108286e-05
-0.097568 -1.160376e-05
-0.097318 -1.212054e-05
-0.097068 -1.263302e-05
-0.096818 -1.314105e-05
-0.096568 -1.364445e-05
-0.096318 -1.414305e-05
-0.096068 -1.463671e-05
-0.095818 -1.512525e-05
-0.095568 -1.560851e-05
-0.095318 -1.608635e-05
-0.095068 -1.655860e-05
-0.094818 -1.702511e-05
-0.094568 -1.748573e-05
-0.094318 -1.794031e-05
-0.094068 -1.838870e-05
-0.093818 -1.883076e-05
-0.093568 -1.926634e-05
-0.093318 -1.969530e-05
-0.093068 -2.011751e-05
-0.092818 -2.053282e-05
-0.092568 -2.094111e-05
-0.092318 -2.134225e-05
-0.092068 -2.173609e-05
-0.091818 -2.212253e-05
-0.091568 -2.250142e-05
-0.091318 -2.287266e-05
-0.091068 -2.323612e-05
-0.090818 -2.359169e-05
-0.090568 -2.393925e-05
-0.090318 -2.427870e-05
-0.090068 -2.460992e-05
-0.089818 -2.493281e-05
-0.089568 -2.524727e-05
-0.089318 -2.555319e-05
-0.089068 -2.585049e-05
-0.088818 -2.613906e-05
-0.088568 -2.641882e-05
-0.088318 -2.668968e-05
-0.088068 -2.695156e-05
-0.087818 -2.720436e-05
-0.087568 -2.744802e-05
-0.087318 -2.768246e-05
-0.087068 -2.790760e-05
-0.086818 -2.812338e-05
-0.086568 -2.832973e-05
-0.086318 -2.852659e-05
-0.086068 -2.871390e-05
-0.085818 -2.889159e-05
-0.085568 -2.905962e-05
-0.085318 -2.921794e-05
-0.085068 -2.936650e-05
-0.084818 -2.950525e-05
-0.084568 -2.963416e-05
-0.084318 -2.975319e-05
-0.084068 -2.986230e-05
-0.083818 -2.996146e-05
-0.083568 -3.005066e-05
-0.083318 -3.012985e-05
-0.083068 -3.019903e-05
-0.082818 -3.025817e-05
-0.082568 -3.030726e-05
-0.082318 -3.034629e-05
-0.082068 -3.037526e-05
-0.081818 -3.039415e-05
-0.081568 -3.040298e-05
-0.081318 -3.040173e-05
-0.081068 -3.039042e-05
-0.080818 -3.036906e-05
-0.080568 -3.033766e-05
-0.080318 -3.029623e-05
-0.080068 -3.024479e-05
-0.079818 -3.018338e-05
-0.079568 -3.011201e-05
-0.079318 -3.003071e-05
-0.079068 -2.993951e-05
-0.078818 -2.983845e-05
-0.078568 -2.972758e-05
-0.078318 -2.960693e-05
-0.078068 -2.947654e-05
-0.077818 -2.933647e-05
-0.077568 -2.918677e-05
-0.077318 -2.902749e-05
-0.077068 -2.885869e-05
-0.076818 -2.868043e-05
-0.076568 -2.849278e-05
-0.076318 -2.829580e-05
-0.076068 -2.808957e-05
-0.075818 -2.787416e-05
-0.075568 -2.764963e-05
-0.075318 -2.741609e-05
-0.075068 -2.717359e-05
-0.074818 -2.692224e-05
-0.074568 -2.666212e-05
-0.074318 -2.639332e-05
-0.074068 -2.611593e-05
-0.073818 -2.583005e-05
-0.073568 -2.553578e-05
-0.073318 -2.523323e-05
-0.073068 -2.492249e-05
-0.072818 -2.460367e-05
-0.072568 -2.427689e-05
-0.072318 -2.394225e-05
-0.072068 -2.359988e-05
-0.071818 -2.324989e-05
-0.071568 -2.289239e-05
-0.071318 -2.252752e-05
-0.071068 -2.215539e-05
-0.070818 -2.177614e-05
-0.070568 -2.138989e-05
-0.070318 -2.099677e-05
-0.070068 -2.059692e-05
-0.069818 -2.019048e-05
-0.069568 -1.977758e-05
-0.069318 -1.935836e-05
-0.069068 -1.893297e-05
-0.068818 -1.850154e-05
-0.068568 -1.806423e-05
-0.068318 -1.762119e-05
-0.068068 -1.717255e-05
-0.067818 -1.671848e-05
-0.067568 -1.625913e-05
-0.067318 -1.579465e-05
-0.067068 -1.532520e-05
-0.066818 -1.485093e-05
-0.066568 -1.437201e-05
-0.066318 -1.388860e-05
-0.066068 -1.340085e-05
-0.065818 -1.290894e-05
-0.065568 -1.241303e-05
-0.065318 -1.191328e-05
-0.065068 -1.140986e-05
-0.064818 -1.090293e-05
-0.064568 -1.039268e-05
-0.064318 -9.879268e-06
-0.064068 -9.362866e-06
-0.063818 -8.843646e-06
-0.063568 -8.321782e-06
-0.063318 -7.797448e-06
-0.063068 -7.270819e-06
-0.062818 -6.742069e-06
-0.062568 -6.211375e-06
-0.062318 -5.678913e-06
-0.062068 -5.144859e-06
-0.061818 -4.609392e-06
-0.061568 -4.072689e-06
-0.061318 -3.534927e-06
-0.061068 -2.996286e-06
-0.060818 -2.456943e-06
-0.060568 -1.917077e-06
-0.060318 -1.376866e-06
-0.060068 -8.364891e-07
-0.059818 -2.961249e-07
-0.059568 2.440483e-07
-0.059318 7.838522e-07
-0.059068 1.323109e-06
-0.058818 1.861640e-06
-0.058568 2.399270e-06
-0.058318 2.935820e-06
-0.058068 3.471113e-06
-0.057818 4.004975e-06
-0.057568 4.537230e-06
-0.057318 5.067702e-06
-0.057068 5.596218e-06
-0.056818 6.122605e-06
-0.056568 6.646689e-06
-0.056318 7.168300e-06
-0.056068 7.687265e-06
-0.055818 8.203417e-06
-0.055568 8.716585e-06
-0.055318 9.226602e-06
-0.055068 9.733302e-06
-0.054818 1.023652e-05
-0.054568 1.073609e-05
-0.054318 1.123185e-05
-0.054068 1.172364e-05
-0.053818 1.221130e-05
-0.053568 1.269467e-05
-0.053318 1.317359e-05
-0.053068 1.364791e-05
-0.052818 1.411747e-05
-0.052568 1.458213e-05
-0.052318 1.504172e-05
-0.052068 1.549611e-05
-0.051818 1.594515e-05
-0.051568 1.638868e-05
-0.051318 1.682657e-05
-0.051068 1.725868e-05
-0.050818 1.768486e-05
-0.050568 1.810498e-05
-0.050318 1.851891e-05
-0.050068 1.892651e-05
-0.049818 1.932765e-05
-0.049568 1.972220e-05
-0.049318 2.011003e-05
-0.049068 2.049103e-05
-0.048818 2.086507e-05
-0.048568 2.123202e-05
-0.048318 2.159178e-05
-0.048068 2.194423e-05
-0.047818 2.228925e-05
-0.047568 2.262674e-05
-0.047318 2.295659e-05
-0.047068 2.327870e-05
-0.046818 2.359296e-05
-0.046568 2.389927e-05
-0.046318 2.419754e-05
-0.046068 2.448768e-05
-0.045818 2.476959e-05
-0.045568 2.504318e-05
-0.045318 2.530837e-05
-0.045068 2.556508e-05
-0.044818 2.581323e-05
-0.044568 2.605273e-05
-0.044318 2.628352e-05
-0.044068 2.650553e-05
-0.043818 2.671868e-05
-0.043568 2.692292e-05
-0.043318 2.711817e-05
-0.043068 2.730438e-05
-0.042818 2.748150e-05
-0.042568 2.764946e-05
-0.042318 2.780823e-05
-0.042068 2.795775e-05
-0.041818 2.809798e-05
-0.041568 2.822888e-05
-0.041318 2.835040e-05
-0.041068 2.846252e-05
-0.040818 2.856521e-05
-0.040568 2.865843e-05
-0.040318 2.874216e-05
-0.040068 2.881638e-05
-0.039818 2.888107e-05
-0.039568 2.893621e-05
-0.039318 2.898179e-05
-0.039068 2.901780e-05
-0.038818 2.904424e-05
-0.038568 2.906109e-05
-0.038318 2.906837e-05
-0.038068 2.906607e-05
-0.037818 2.905420e-05
-0.037568 2.903277e-05
-0.037318 2.900179e-05
-0.037068 2.896128e-05
-0.036818 2.891126e-05
-0.036568 2.885174e-05
-0.036318 2.878275e-05
-0.036068 2.870433e-05
-0.035818 2.861650e-05
-0.035568 2.851929e-05
-0.035318 2.841275e-05
-0.035068 2.829692e-05
-0.034818 2.817183e-05
-0.034568 2.803753e-05
-0.034318 2.789408e-05
-0.034068 2.774152e-05
-0.033818 2.757991e-05
-0.033568 2.740932e-05
-0.033318 2.722979e-05
-0.033068 2.704140e-05
-0.032818 2.684421e-05
-0.032568 2.663830e-05
-0.032318 2.642373e-05
-0.032068 2.620057e-05
-0.031818 2.596892e-05
-0.031568 2.572885e-05
-0.031318 2.548044e-05
-0.031068 2.522378e-05
-0.030818 2.495895e-05
-0.030568 2.468606e-05
-0.030318 2.440520e-05
-0.030068 2.411645e-05
-0.029818 2.381993e-05
-0.029568 2.351573e-05
-0.029318 2.320396e-05
-0.029068 2.288472e-05
-0.028818 2.255813e-05
-0.028568 2.222430e-05
-0.028318 2.188333e-05
-0.028068 2.153535e-05
-0.027818 2.118047e-05
-0.027568 2.081882e-05
-0.027318 2.045052e-05
-0.027068 2.007568e-05
-0.026818 1.969445e-05
-0.026568 1.930695e-05
-0.026318 1.891331e-05
-0.026068 1.851366e-05
-0.025818 1.810814e-05
-0.025568 1.769688e-05
-0.025318 1.728002e-05
-0.025068 1.685771e-05
-0.024818 1.643008e-05
-0.024568 1.599728e-05
-0.024318 1.555946e-05
-0.024068 1.511676e-05
-0.023818 1.466932e-05
-0.023568 1.421730e-05
-0.023318 1.376086e-05
-0.023068 1.330014e-05
-0.022818 1.283529e-05
-0.022568 1.236648e-05
-0.022318 1.189385e-05
-0.022068 1.141757e-05
-0.021818 1.093779e-05
-0.021568 1.045468e-05
-0.021318 9.968396e-06
-0.021068 9.479096e-06
-0.020818 8.986945e-06
-0.020568 8.492106e-06
-0.020318 7.994744e-06
-0.020068 7.495024e-06
-0.019818 6.993110e-06
-0.019568 6.489170e-06
-0.019318 5.983370e-06
-0.019068 5.475878e-06
-0.018818 4.966860e-06
-0.018568 4.456486e-06
-0.018318 3.944924e-06
-0.018068 3.432342e-06
-0.017818 2.918910e-06
-0.017568 2.404796e-06
-0.017318 1.890171e-06
-0.017068 1.375203e-06
-0.016818 8.600618e-07
-0.016568 3.449169e-07
-0.016318 -1.700625e-07
-0.016068 -6.847074e-07
-0.015818 -1.198849e-06
-0.015568 -1.712318e-06
-0.015318 -2.224947e-06
-0.015068 -2.736568e-06
-0.014818 -3.247013e-06
-0.014568 -3.756115e-06
-0.014318 -4.263708e-06
-0.014068 -4.769626e-06
-0.013818 -5.273704e-06
-0.013568 -5.775777e-06
-0.013318 -6.275681e-06
-0.013068 -6.773254e-06
-0.012818 -7.268333e-06
-0.012568 -7.760757e-06
-0.012318 -8.250367e-06
-0.012068 -8.737002e-06
-0.011818 -9.220505e-06
-0.011568 -9.700718e-06
-0.011318 -1.017749e-05
-0.011068 -1.065066e-05
-0.010818 -1.112007e-05
-0.010568 -1.158558e-05
-0.010318 -1.204704e-05
-0.010068 -1.250429e-05
-0.009818 -1.295719e-05
-0.009568 -1.340559e-05
-0.009318 -1.384934e-05
-0.009068 -1.428831e-05
-0.008818 -1.472235e-05
-0.008568 -1.515133e-05
-0.008318 -1.557510e-05
-0.008068 -1.599353e-05
-0.007818 -1.640648e-05
-0.007568 -1.681382e-05
-0.007318 -1.721543e-05
-0.007068 -1.761116e-05
-0.006818 -1.800091e-05
-0.006568 -1.838453e-05
-0.006318 -1.876192e-05
-0.006068 -1.913294e-05
-0.005818 -1.949749e-05
-0.005568 -1.985544e-05
-0.005318 -2.020668e-05
-0.005068 -2.055110e-05
-0.004818 -2.088859e-05
-0.004568 -2.121904e-05
-0.004318 -2.154236e-05
-0.004068 -2.185843e-05
-0.003818 -2.216716e-05
-0.003568 -2.246845e-05
-0.003318 -2.276221e-05
-0.003068 -2.304834e-05
-0.002818 -2.332675e-05
-0.002568 -2.359737e-05
-0.002318 -2.386009e-05
-0.002068 -2.411485e-05
-0.001818 -2.436156e-05
-0.001568 -2.460015e-05
-0.001318 -2.483054e-05
-0.001068 -2.505266e-05
-0.000818 -2.526644e-05
-0.000568 -2.547182e-05
-0.000318 -2.566874e-05
-0.000068 -2.585714e-05
0.000182 -2.603695e-05
0.000432 -2.620813e-05
0.000682 -2.637062e-05
0.000932 -2.652437e-05
0.001182 -2.666935e-05
0.001432 -2.680551e-05
0.001682 -2.693280e-05
0.001932 -2.705119e-05
0.002182 -2.716065e-05
0.002432 -2.726115e-05
0.002682 -2.735265e-05
0.002932 -2.743514e-05
0.003182 -2.750859e-05
0.003432 -2.757298e-05
0.003682 -2.762831e-05
0.003932 -2.767454e-05
0.004182 -2.771168e-05
0.004432 -2.773972e-05
0.004682 -2.775864e-05
0.004932 -2.776847e-05
0.005182 -2.776918e-05
0.005432 -2.776079e-05
0.005682 -2.774332e-05
0.005932 -2.771675e-05
0.006182 -2.768113e-05
0.006432 -2.763644e-05
0.006682 -2.758273e-05
0.006932 -2.752001e-05
0.007182 -2.744831e-05
0.007432 -2.736765e-05
0.007682 -2.727807e-05
0.007932 -2.717960e-05
0.008182 -2.707227e-05
0.008432 -2.695614e-05
0.008682 -2.683124e-05
0.008932 -2.669762e-05
0.009182 -2.655532e-05
0.009432 -2.640440e-05
0.009682 -2.624492e-05
0.009932 -2.607692e-05
0.010182 -2.590048e-05
0.010432 -2.571564e-05
0.010682 -2.552249e-05
0.010932 -2.532108e-05
0.011182 -2.511149e-05
0.011432 -2.489378e-05
0.011682 -2.466804e-05
0.011932 -2.443435e-05
0.012182 -2.419278e-05
0.012432 -2.394342e-05
0.012682 -2.368635e-05
0.012932 -2.342167e-05
0.013182 -2.314947e-05
0.013432 -2.286983e-05
0.013682 -2.258285e-05
0.013932 -2.228864e-05
0.014182 -2.198729e-05
0.014432 -2.167890e-05
0.014682 -2.136359e-05
0.014932 -2.104145e-05
0.015182 -2.071260e-05
0.015432 -2.037714e-05
0.015682 -2.003520e-05
0.015932 -1.968689e-05
0.016182 -1.933232e-05
0.016432 -1.897161e-05
0.016682 -1.860490e-05
0.016932 -1.823229e-05
0.017182 -1.785392e-05
0.017432 -1.746991e-05
0.017682 -1.708039e-05
0.017932 -1.668549e-05
0.018182 -1.628535e-05
0.018432 -1.588010e-05
0.018682 -1.546987e-05
0.018932 -1.505480e-05
0.019182 -1.463503e-05
0.019432 -1.421070e-05
0.019682 -1.378195e-05
0.019932 -1.334892e-05
0.020182 -1.291176e-05
0.020432 -1.247062e-05
0.020682 -1.202564e-05
0.020932 -1.157696e-05
0.021182 -1.112474e-05
0.021432 -1.066913e-05
0.021682 -1.021027e-05
0.021932 -9.748330e-06
0.022182 -9.283448e-06
0.022432 -8.815783e-06
0.022682 -8.345488e-06
0.022932 -7.872720e-06
0.023182 -7.397635e-06
0.023432 -6.920389e-06
0.023682 -6.441140e-06
0.023932 -5.960045e-06
0.024182 -5.477263e-06
0.024432 -4.992953e-06
0.024682 -4.507274e-06
0.024932 -4.020386e-06
0.025182 -3.532449e-06
0.025432 -3.043623e-06
0.025682 -2.554068e-06
0.025932 -2.063945e-06
0.026182 -1.573414e-06
0.026432 -1.082637e-06
0.026682 -5.917730e-07
0.026932 -1.009836e-07
0.027182 3.895710e-07
0.027432 8.797305e-07
0.027682 1.369335e-06
0.027932 1.858224e-06
0.028182 2.346239e-06
0.028432 2.833221e-06
0.028682 3.319011e-06
0.028932 3.803450e-06
0.029182 4.286382e-06
0.029432 4.767648e-06
0.029682 5.247094e-06
0.029932 5.724562e-06
0.030182 6.199899e-06
0.030432 6.672949e-06
0.030682 7.143560e-06
0.030932 7.611579e-06
0.031182 8.076855e-06
0.031432 8.539237e-06
0.031682 8.998575e-06
0.031932 9.454722e-06
0.032182 9.907529e-06
0.032432 1.035685e-05
0.032682 1.080254e-05
0.032932 1.124446e-05
0.033182 1.168247e-05
0.033432 1.211641e-05
0.033682 1.254616e-05
0.033932 1.297158e-05
0.034182 1.339252e-05
0.034432 1.380886e-05
0.034682 1.422046e-05
0.034932 1.462719e-05
0.035182 1.502892e-05
0.035432 1.542552e-05
0.035682 1.581686e-05
0.035932 1.620282e-05
0.036182 1.658328e-05
0.036432 1.695811e-05
0.036682 1.732719e-05
0.036932 1.769042e-05
0.037182 1.804767e-05
0.037432 1.839883e-05
0.037682 1.874378e-05
0.037932 1.908243e-05
0.038182 1.941465e-05
0.038432 1.974036e-05
0.038682 2.005944e-05
0.038932 2.037179e-05
0.039182 2.067732e-05
0.039432 2.097593e-05
0.039682 2.126753e-05
0.039932 2.155202e-05
0.040182 2.182932e-05
0.040432 2.209934e-05
0.040682 2.236200e-05
0.040932 2.261721e-05
0.041182 2.286489e-05
0.041432 2.310498e-05
0.041682 2.333739e-05
0.041932 2.356205e-05
0.042182 2.377890e-05
0.042432 2.398786e-05
0.042682 2.418888e-05
0.042932 2.438189e-05
0.043182 2.456684e-05
0.043432 2.474367e-05
0.043682 2.491232e-05
0.043932 2.507275e-05
0.044182 2.522490e-05
0.044432 2.536874e-05
0.044682 2.550422e-05
0.044932 2.563130e-05
0.045182 2.574995e-05
0.045432 2.586012e-05
0.045682 2.596180e-05
0.045932 2.605495e-05
0.046182 2.613954e-05
0.046432 2.621556e-05
0.046682 2.628298e-05
0.046932 2.634178e-05
0.047182 2.639196e-05
0.047432 2.643350e-05
0.047682 2.646638e-05
0.047932 2.649062e-05
0.048182 2.650620e-05
0.048432 2.651312e-05
0.048682 2.651138e-05
0.048932 2.650100e-05
0.049182 2.648198e-05
0.049432 2.645433e-05
0.049682 2.641806e-05
0.049932 2.637319e-05
0.050182 2.631974e-05
0.050432 2.625774e-05
0.050682 2.618721e-05
0.050932 2.610817e-05
0.051182 2.602065e-05
0.051432 2.592470e-05
0.051682 2.582035e-05
0.051932 2.570763e-05
0.052182 2.558658e-05
0.052432 2.545726e-05
0.052682 2.531970e-05
0.052932 2.517397e-05
0.053182 2.502010e-05
0.053432 2.485815e-05
0.053682 2.468819e-05
0.053932 2.451027e-05
0.054182 2.432446e-05
0.054432 2.413081e-05
0.054682 2.392940e-05
0.054932 2.372030e-05
0.055182 2.350358e-05
0.055432 2.327931e-05
0.055682 2.304758e-05
0.055932 2.280846e-05
0.056182 2.256203e-05
0.056432 2.230838e-05
0.056682 2.204760e-05
0.056932 2.177977e-05
0.057182 2.150499e-05
0.057432 2.122335e-05
0.057682 2.093494e-05
0.057932 2.063987e-05
0.058182 2.033823e-05
0.058432 2.003013e-05
0.058682 1.971566e-05
0.058932 1.939494e-05
0.059182 1.906808e-05
0.059432 1.873518e-05
0.059682 1.839635e-05
0.059932 1.805172e-05
0.060182 1.770139e-05
0.060432 1.734548e-05
0.060682 1.698411e-05
0.060932 1.661741e-05
0.061182 1.624550e-05
0.061432 1.586849e-05
0.061682 1.548652e-05
0.061932 1.509971e-05
0.062182 1.470819e-05
0.062432 1.431210e-05
0.062682 1.391156e-05
0.062932 1.350670e-05
0.063182 1.309767e-05
0.063432 1.268459e-05
0.063682 1.226760e-05
0.063932 1.184685e-05
0.064182 1.142247e-05
0.064432 1.099460e-05
0.064682 1.056338e-05
0.064932 1.012896e-05
0.065182 9.691475e-06
0.065432 9.251073e-06
0.065682 8.807899e-06
0.065932 8.362099e-06
0.066182 7.913819e-06
0.066432 7.463207e-06
0.066682 7.010411e-06
0.066932 6.555579e-06
0.067182 6.098862e-06
0.067432 5.640409e-06
0.067682 5.180370e-06
0.067932 4.718895e-06
0.068182 4.256137e-06
0.068432 3.792246e-06
0.068682 3.327374e-06
0.068932 2.861674e-06
0.069182 2.395297e-06
0.069432 1.928395e-06
0.069682 1.461121e-06
0.069932 9.936277e-07
0.070182 5.260668e-07
0.070432 5.859071e-08
0.070682 -4.086483e-07
0.070932 -8.754983e-07
0.071182 -1.341807e-06
0.071432 -1.807424e-06
0.071682 -2.272198e-06
0.071932 -2.735976e-06
0.072182 -3.198611e-06
0.072432 -3.659950e-06
0.072682 -4.119845e-06
0.072932 -4.578147e-06
0.073182 -5.034708e-06
0.073432 -5.489380e-06
0.073682 -5.942016e-06
0.073932 -6.392469e-06
0.074182 -6.840596e-06
0.074432 -7.286250e-06
0.074682 -7.729289e-06
0.074932 -8.169569e-06
0.075182 -8.606950e-06
0.075432 -9.041289e-06
0.075682 -9.472449e-06
0.075932 -9.900289e-06
0.076182 -1.032467e-05
0.076432 -1.074547e-05
0.076682 -1.116253e-05
0.076932 -1.157573e-05
0.077182 -1.198494e-05
0.077432 -1.239003e-05
0.077682 -1.279087e-05
0.077932 -1.318732e-05
0.078182 -1.357926e-05
0.078432 -1.396657e-05
0.078682 -1.434913e-05
0.078932 -1.472681e-05
0.079182 -1.509949e-05
0.079432 -1.546705e-05
0.079682 -1.582938e-05
0.079932 -1.618636e-05
0.080182 -1.653788e-05
0.080432 -1.688383e-05
0.080682 -1.722410e-05
0.080932 -1.755858e-05
0.081182 -1.788716e-05
0.081432 -1.820974e-05
0.081682 -1.852623e-05
0.081932 -1.883652e-05
0.082182 -1.914051e-05
0.082432 -1.943811e-05
0.082682 -1.972922e-05
0.082932 -2.001376e-05
0.083182 -2.029163e-05
0.083432 -2.056276e-05
0.083682 -2.082704e-05
0.083932 -2.108441e-05
0.084182 -2.133479e-05
0.084432 -2.157809e-05
0.084682 -2.181423e-05
0.084932 -2.204316e-05
0.085182 -2.226479e-05
0.085432 -2.247907e-05
0.085682 -2.268591e-05
0.085932 -2.288527e-05
0.086182 -2.307708e-05
0.086432 -2.326128e-05
0.086682 -2.343782e-05
0.086932 -2.360664e-05
0.087182 -2.376769e-05
0.087432 -2.392093e-05
0.087682 -2.406631e-05
0.087932 -2.420379e-05
0.088182 -2.433333e-05
0.088432 -2.445488e-05
0.088682 -2.456842e-05
0.088932 -2.467391e-05
0.089182 -2.477132e-05
0.089432 -2.486063e-05
0.089682 -2.494181e-05
0.089932 -2.501484e-05
0.090182 -2.507970e-05
0.090432 -2.513637e-05
0.090682 -2.518485e-05
0.090932 -2.522511e-05
0.091182 -2.525715e-05
0.091432 -2.528097e-05
0.091682 -2.529656e-05
0.091932 -2.530392e-05
0.092182 -2.530306e-05
0.092432 -2.529397e-05
0.092682 -2.527668e-05
0.092932 -2.525117e-05
0.093182 -2.521748e-05
0.093432 -2.517561e-05
0.093682 -2.512559e-05
0.093932 -2.506743e-05
0.094182 -2.500116e-05
0.094432 -2.492681e-05
0.094682 -2.484439e-05
0.094932 -2.475395e-05
0.095182 -2.465552e-05
0.095432 -2.454914e-05
0.095682 -2.443484e-05
0.095932 -2.431266e-05
0.096182 -2.418265e-05
0.096432 -2.404487e-05
0.096682 -2.389934e-05
0.096932 -2.374614e-05
0.097182 -2.358530e-05
0.097432 -2.341690e-05
0.097682 -2.324098e-05
0.097932 -2.305761e-05
0.098182 -2.286685e-05
0.098432 -2.266877e-05
0.098682 -2.246344e-05
0.098932 -2.225092e-05
0.099182 -2.203130e-05
0.099432 -2.180464e-05
0.099682 -2.157103e-05
0.099932 -2.133054e-05
0.100182 -2.108326e-05
0.100432 -2.082927e-05
0.100682 -2.056865e-05
0.100932 -2.030150e-05
0.101182 -2.002790e-05
0.101432 -1.974795e-05
0.101682 -1.946175e-05
0.101932 -1.916938e-05
0.102182 -1.887095e-05
0.102432 -1.856656e-05
0.102682 -1.825630e-05
0.102932 -1.794030e-05
0.103182 -1.761864e-05
0.103432 -1.729143e-05
0.103682 -1.695880e-05
0.103932 -1.662084e-05
0.104182 -1.627767e-05
0.104432 -1.592941e-05
0.104682 -1.557617e-05
0.104932 -1.521807e-05
0.105182 -1.485522e-05
0.105432 -1.448775e-05
0.105682 -1.411578e-05
0.105932 -1.373944e-05
0.106182 -1.335884e-05
0.106432 -1.297412e-05
0.106682 -1.258539e-05
0.106932 -1.219280e-05
0.107182 -1.179646e-05
0.107432 -1.139652e-05
0.107682 -1.099309e-05
0.107932 -1.058632e-05
0.108182 -1.017634e-05
0.108432 -9.763283e-06
0.108682 -9.347282e-06
0.108932 -8.928478e-06
0.109182 -8.507006e-06
0.109432 -8.083005e-06
0.109682 -7.656614e-06
0.109932 -7.227974e-06
0.110182 -6.797223e-06
0.110432 -6.364504e-06
0.110682 -5.929957e-06
0.110932 -5.493725e-06
0.111182 -5.055951e-06
0.111432 -4.616776e-06
0.111682 -4.176344e-06
0.111932 -3.734800e-06
0.112182 -3.292286e-06
0.112432 -2.848946e-06
0.112682 -2.404926e-06
0.112932 -1.960370e-06
0.113182 -1.515421e-06
0.113432 -1.070225e-06
0.113682 -6.249254e-07
0.113932 -1.796677e-07
0.114182 2.654043e-07
0.114432 7.101462e-07
0.114682 1.154414e-06
0.114932 1.598064e-06
0.115182 2.040952e-06
0.115432 2.482936e-06
0.115682 2.923873e-06
0.115932 3.363619e-06
0.116182 3.802035e-06
0.116432 4.238977e-06
0.116682 4.674305e-06
0.116932 5.107879e-06
0.117182 5.539559e-06
0.117432 5.969207e-06
0.117682 6.396684e-06
0.117932 6.821853e-06
0.118182 7.244578e-06
0.118432 7.664722e-06
0.118682 8.082152e-06
0.118932 8.496733e-06
0.119182 8.908332e-06
0.119432 9.316818e-06
0.119682 9.722061e-06
0.119932 1.012393e-05
0.120182 1.052230e-05
0.120432 1.091704e-05
0.120682 1.130802e-05
0.120932 1.169512e-05
0.121182 1.207823e-05
0.121432 1.245721e-05
0.121682 1.283194e-05
0.121932 1.320231e-05
0.122182 1.356820e-05
0.122432 1.392949e-05
0.122682 1.428607e-05
0.122932 1.463782e-05
0.123182 1.498464e-05
0.123432 1.532641e-05
0.123682 1.566303e-05
0.123932 1.599439e-05
0.124182 1.632039e-05
0.124432 1.664092e-05
0.124682 1.695588e-05
0.124932 1.726518e-05
0.125182 1.756871e-05
0.125432 1.786638e-05
0.125682 1.815811e-05
0.125932 1.844379e-05
0.126182 1.872334e-05
0.126432 1.899667e-05
0.126682 1.926370e-05
0.126932 1.952434e-05
0.127182 1.977852e-05
0.127432 2.002615e-05
0.127682 2.026716e-05
0.127932 2.050147e-05
0.128182 2.072901e-05
0.128432 2.094971e-05
0.128682 2.116351e-05
0.128932 2.137033e-05
0.129182 2.157013e-05
0.129432 2.176282e-05
0.129682 2.194837e-05
0.129932 2.212670e-05
0.130182 2.229777e-05
0.130432 2.246152e-05
0.130682 2.261792e-05
0.130932 2.276690e-05
0.131182 2.290843e-05
0.131432 2.304246e-05
0.131682 2.316896e-05
0.131932 2.328789e-05
0.132182 2.339921e-05
0.132432 2.350290e-05
0.132682 2.359892e-05
0.132932 2.368725e-05
0.133182 2.376786e-05
0.133432 2.384073e-05
0.133682 2.390584e-05
0.133932 2.396318e-05
0.134182 2.401273e-05
0.134432 2.405447e-05
0.134682 2.408841e-05
0.134932 2.411454e-05
0.135182 2.413284e-05
0.135432 2.414332e-05
0.135682 2.414598e-05
0.135932 2.414083e-05
0.136182 2.412786e-05
0.136432 2.410709e-05
0.136682 2.407853e-05
0.136932 2.404219e-05
0.137182 2.399809e-05
0.137432 2.394625e-05
0.137682 2.388669e-05
0.137932 2.381943e-05
0.138182 2.374450e-05
0.138432 2.366192e-05
0.138682 2.357174e-05
0.138932 2.347397e-05
0.139182 2.336867e-05
0.139432 2.325586e-05
0.139682 2.313558e-05
0.139932 2.300789e-05
0.140182 2.287282e-05
0.140432 2.273043e-05
0.140682 2.258076e-05
0.140932 2.242386e-05
0.141182 2.225980e-05
0.141432 2.208862e-05
0.141682 2.191039e-05
0.141932 2.172518e-05
0.142182 2.153303e-05
0.142432 2.133402e-05
0.142682 2.112823e-05
0.142932 2.091571e-05
0.143182 2.069654e-05
0.143432 2.047079e-05
0.143682 2.023855e-05
0.143932 1.999989e-05
0.144182 1.975489e-05
0.144432 1.950363e-05
0.144682 1.924621e-05
0.144932 1.898270e-05
0.145182 1.871319e-05
0.145432 1.843779e-05
0.145682 1.815656e-05
0.145932 1.786962e-05
0.146182 1.757706e-05
0.146432 1.727898e-05
0.146682 1.697547e-05
0.146932 1.666663e-05
0.147182 1.635258e-05
0.147432 1.603341e-05
0.147682 1.570923e-05
0.147932 1.538015e-05
0.148182 1.504628e-05
0.148432 1.470772e-05
0.148682 1.436459e-05
0.148932 1.401701e-05
0.149182 1.366509e-05
0.149432 1.330894e-05
0.149682 1.294868e-05
0.149932 1.258443e-05
0.150182 1.221631e-05
0.150432 1.184445e-05
0.150682 1.146896e-05
0.150932 1.108997e-05
0.151182 1.070760e-05
0.151432 1.032198e-05
0.151682 9.933230e-06
0.151932 9.541485e-06
0.152182 9.146870e-06
0.152432 8.749515e-06
0.152682 8.349549e-06
0.152932 7.947103e-06
0.153182 7.542308e-06
0.153432 7.135297e-06
0.153682 6.726203e-06
0.153932 6.315159e-06
0.154182 5.902299e-06
0.154432 5.487756e-06
0.154682 5.071668e-06
0.154932 4.654168e-06
0.155182 4.235392e-06
0.155432 3.815476e-06
0.155682 3.394558e-06
0.155932 2.972772e-06
0.156182 2.550257e-06
0.156432 2.127148e-06
0.156682 1.703584e-06
0.156932 1.279701e-06
0.157182 8.556358e-07
0.157432 4.315262e-07
0.157682 7.509104e-09
0.157932 -4.162786e-07
0.158182 -8.397002e-07
0.158432 -1.262619e-06
0.158682 -1.684899e-06
0.158932 -2.106403e-06
0.159182 -2.526997e-06
0.159432 -2.946545e-06
0.159682 -3.364911e-06
0.159932 -3.781962e-06
0.160182 -4.197563e-06
0.160432 -4.611582e-06
0.160682 -5.023884e-06
0.160932 -5.434338e-06
0.161182 -5.842813e-06
0.161432 -6.249178e-06
0.161682 -6.653302e-06
0.161932 -7.055057e-06
0.162182 -7.454313e-06
0.162432 -7.850944e-06
0.162682 -8.244823e-06
0.162932 -8.635824e-06
0.163182 -9.023823e-06
0.163432 -9.408695e-06
0.163682 -9.790320e-06
0.163932 -1.016857e-05
0.164182 -1.054334e-05
0.164432 -1.091449e-05
0.164682 -1.128192e-05
0.164932 -1.164550e-05
0.165182 -1.200513e-05
0.165432 -1.236068e-05
0.165682 -1.271205e-05
0.165932 -1.305912e-05
0.166182 -1.340179e-05
0.166432 -1.373994e-05
0.166682 -1.407347e-05
0.166932 -1.440228e-05
0.167182 -1.472626e-05
0.167432 -1.504530e-05
0.167682 -1.535932e-05
0.167932 -1.566821e-05
0.168182 -1.597187e-05
0.168432 -1.627020e-05
0.168682 -1.656313e-05
0.168932 -1.685054e-05
0.169182 -1.713237e-05
0.169432 -1.740850e-05
0.169682 -1.767887e-05
0.169932 -1.794339e-05
0.170182 -1.820197e-05
0.170432 -1.845453e-05
0.170682 -1.870100e-05
0.170932 -1.894130e-05
0.171182 -1.917535e-05
0.171432 -1.940309e-05
0.171682 -1.962445e-05
0.171932 -1.983935e-05
0.172182 -2.004773e-05
0.172432 -2.024953e-05
0.172682 -2.044468e-05
0.172932 -2.063313e-05
0.173182 -2.081482e-05
0.173432 -2.098970e-05
0.173682 -2.115771e-05
0.173932 -2.131880e-05
0.174182 -2.147292e-05
0.174432 -2.162003e-05
0.174682 -2.176009e-05
0.174932 -2.189304e-05
0.175182 -2.201887e-05
0.175432 -2.213752e-05
0.175682 -2.224896e-05
0.175932 -2.235317e-05
0.176182 -2.245011e-05
0.176432 -2.253975e-05
0.176682 -2.262208e-05
0.176932 -2.269706e-05
0.177182 -2.276468e-05
0.177432 -2.282492e-05
0.177682 -2.287777e-05
0.177932 -2.292320e-05
0.178182 -2.296122e-05
0.178432 -2.299182e-05
0.178682 -2.301498e-05
0.178932 -2.303070e-05
0.179182 -2.303899e-05
0.179432 -2.303985e-05
0.179682 -2.303327e-05
0.179932 -2.301927e-05
0.180182 -2.299786e-05
0.180432 -2.296904e-05
0.180682 -2.293283e-05
0.180932 -2.288924e-05
0.181182 -2.283829e-05
0.181432 -2.278001e-05
0.181682 -2.271442e-05
0.181932 -2.264154e-05
0.182182 -2.256140e-05
0.182432 -2.247402e-05
0.182682 -2.237945e-05
0.182932 -2.227772e-05
0.183182 -2.216886e-05
0.183432 -2.205291e-05
0.183682 -2.192991e-05
0.183932 -2.179991e-05
0.184182 -2.166295e-05
0.184432 -2.151909e-05
0.184682 -2.136837e-05
0.184932 -2.121084e-05
0.185182 -2.104655e-05
0.185432 -2.087558e-05
0.185682 -2.069797e-05
0.185932 -2.051378e-05
0.186182 -2.032308e-05
0.186432 -2.012594e-05
0.186682 -1.992241e-05
0.186932 -1.971258e-05
0.187182 -1.949650e-05
0.187432 -1.927427e-05
0.187682 -1.904594e-05
0.187932 -1.881159e-05
0.188182 -1.857131e-05