-0.138818 -1.892702e-06
-0.138568 -1.875791e-06
-0.138318 -1.858556e-06
-0.138068 -1.841004e-06
-0.137818 -1.823141e-06
-0.137568 -1.804973e-06
-0.137318 -1.786507e-06
-0.137068 -1.767749e-06
-0.136818 -1.748704e-06
-0.136568 -1.729381e-06
-0.136318 -1.709785e-06
-0.136068 -1.689923e-06
-0.135818 -1.669801e-06
-0.135568 -1.649428e-06
-0.135318 -1.628809e-06
-0.135068 -1.607952e-06
-0.134818 -1.586864e-06
-0.134568 -1.565552e-06
-0.134318 -1.544023e-06
-0.134068 -1.522285e-06
-0.133818 -1.500344e-06
-0.133568 -1.478209e-06
-0.133318 -1.455886e-06
-0.133068 -1.433384e-06
-0.132818 -1.410710e-06
-0.132568 -1.387871e-06
-0.132318 -1.364876e-06
-0.132068 -1.341732e-06
-0.131818 -1.318446e-06
-0.131568 -1.295027e-06
-0.131318 -1.271483e-06
-0.131068 -1.247821e-06
-0.130818 -1.224049e-06
-0.130568 -1.200175e-06
-0.130318 -1.176208e-06
-0.130068 -1.152154e-06
-0.129818 -1.128023e-06
-0.129568 -1.103822e-06
-0.129318 -1.079560e-06
-0.129068 -1.055244e-06
-0.128818 -1.030882e-06
-0.128568 -1.006483e-06
-0.128318 -9.820544e-07
-0.128068 -9.576047e-07
-0.127818 -9.331418e-07
-0.127568 -9.086738e-07
-0.127318 -8.842088e-07
-0.127068 -8.597549e-07
-0.126818 -8.353202e-07
-0.126568 -8.109127e-07
-0.126318 -7.865404e-07
-0.126068 -7.622114e-07
-0.125818 -7.379336e-07
-0.125568 -7.137150e-07
-0.125318 -6.895636e-07
-0.125068 -6.654873e-07
-0.124818 -6.414940e-07
-0.124568 -6.175914e-07
-0.124318 -5.937874e-07
-0.124068 -5.700899e-07
-0.123818 -5.465064e-07
-0.123568 -5.230447e-07
-0.123318 -4.997124e-07
-0.123068 -4.765171e-07
-0.122818 -4.534663e-07
-0.122568 -4.305675e-07
-0.122318 -4.078281e-07
-0.122068 -3.852555e-07
-0.121818 -3.628569e-07
-0.121568 -3.406396e-07
-0.121318 -3.186108e-07
-0.121068 -2.967775e-07
-0.120818 -2.751467e-07
-0.120568 -2.537255e-07
-0.120318 -2.325206e-07
-0.120068 -2.115389e-07
-0.119818 -1.907870e-07
-0.119568 -1.702716e-07
-0.119318 -1.499993e-07
-0.119068 -1.299764e-07
-0.118818 -1.102094e-07
-0.118568 -9.070459e-08
-0.118318 -7.146803e-08
-0.118068 -5.250587e-08
-0.117818 -3.382410e-08
-0.117568 -1.542859e-08
-0.117318 2.674852e-09
-0.117068 2.048055e-08
-0.116818 3.798293e-08
-0.116568 5.517650e-08
-0.116318 7.205590e-08
-0.116068 8.861588e-08
-0.115818 1.048513e-07
-0.115568 1.207571e-07
-0.115318 1.363284e-07
-0.115068 1.515604e-07
-0.114818 1.664483e-07
-0.114568 1.809877e-07
-0.114318 1.951741e-07
-0.114068 2.090031e-07
-0.113818 2.224706e-07
-0.113568 2.355725e-07
-0.113318 2.483048e-07
-0.113068 2.606637e-07
-0.112818 2.726456e-07
-0.112568 2.842468e-07
-0.112318 2.954639e-07
-0.112068 3.062936e-07
-0.111818 3.167328e-07
-0.111568 3.267783e-07
-0.111318 3.364274e-07
-0.111068 3.456771e-07
-0.110818 3.545250e-07
-0.110568 3.629684e-07
-0.110318 3.710051e-07
-0.110068 3.786328e-07
-0.109818 3.858493e-07
-0.109568 3.926529e-07
-0.109318 3.990416e-07
-0.109068 4.050138e-07
-0.108818 4.105679e-07
-0.108568 4.157027e-07
-0.108318 4.204167e-07
-0.108068 4.247090e-07
-0.107818 4.285786e-07
-0.107568 4.320245e-07
-0.107318 4.350463e-07
-0.107068 4.376433e-07
-0.106818 4.398151e-07
-0.106568 4.415614e-07
-0.106318 4.428822e-07
-0.106068 4.437775e-07
-0.105818 4.442475e-07
-0.105568 4.442924e-07
-0.105318 4.439128e-07
-0.105068 4.431092e-07
-0.104818 4.418823e-07
-0.104568 4.402331e-07
-0.104318 4.381624e-07
-0.104068 4.356716e-07
-0.103818 4.327619e-07
-0.103568 4.294347e-07
-0.103318 4.256916e-07
-0.103068 4.215343e-07
-0.102818 4.169646e-07
-0.102568 4.119845e-07
-0.102318 4.065962e-07
-0.102068 4.008018e-07
-0.101818 3.946038e-07
-0.101568 3.880046e-07
-0.101318 3.810069e-07
-0.101068 3.736136e-07
-0.100818 3.658273e-07
-0.100568 3.576513e-07
-0.100318 3.490887e-07
-0.100068 3.401426e-07
-0.099818 3.308167e-07
-0.099568 3.211143e-07
-0.099318 3.110391e-07
-0.099068 3.005950e-07
-0.098818 2.897857e-07
-0.098568 2.786153e-07
-0.098318 2.670880e-07
-0.098068 2.552079e-07
-0.097818 2.429794e-07
-0.097568 2.304070e-07
-0.097318 2.174953e-07
-0.097068 2.042489e-07
-0.096818 1.906726e-07
-0.096568 1.767714e-07
-0.096318 1.625502e-07
-0.096068 1.480141e-07
-0.095818 1.331684e-07
-0.095568 1.180183e-07
-0.095318 1.025692e-07
-0.095068 8.682663e-08
-0.094818 7.079616e-08
-0.094568 5.448345e-08
-0.094318 3.789428e-08
-0.094068 2.103448e-08
-0.093818 3.910000e-09
-0.093568 -1.347316e-08
-0.093318 -3.110889e-08
-0.093068 -4.899103e-08
-0.092818 -6.711332e-08
-0.092568 -8.546944e-08
-0.092318 -1.040530e-07
-0.092068 -1.228575e-07
-0.091818 -1.418765e-07
-0.091568 -1.611033e-07
-0.091318 -1.805313e-07
-0.091068 -2.001537e-07
-0.090818 -2.199638e-07
-0.090568 -2.399548e-07
-0.090318 -2.601197e-07
-0.090068 -2.804516e-07
-0.089818 -3.009436e-07
-0.089568 -3.215885e-07
-0.089318 -3.423793e-07
-0.089068 -3.633089e-07
-0.088818 -3.843701e-07
-0.088568 -4.055558e-07
-0.088318 -4.268586e-07
-0.088068 -4.482713e-07
-0.087818 -4.697867e-07
-0.087568 -4.913974e-07
-0.087318 -5.130960e-07
-0.087068 -5.348751e-07
-0.086818 -5.567275e-07
-0.086568 -5.786457e-07
-0.086318 -6.006222e-07
-0.086068 -6.226496e-07
-0.085818 -6.447205e-07
-0.085568 -6.668274e-07
-0.085318 -6.889629e-07
-0.085068 -7.111194e-07
-0.084818 -7.332897e-07
-0.084568 -7.554660e-07
-0.084318 -7.776412e-07
-0.084068 -7.998076e-07
-0.083818 -8.219578e-07
-0.083568 -8.440845e-07
-0.083318 -8.661802e-07
-0.083068 -8.882375e-07
-0.082818 -9.102490e-07
-0.082568 -9.322074e-07
-0.082318 -9.541054e-07
-0.082068 -9.759357e-07
-0.081818 -9.976909e-07
-0.081568 -1.019364e-06
-0.081318 -1.040948e-06
-0.081068 -1.062434e-06
-0.080818 -1.083818e-06
-0.080568 -1.105090e-06
-0.080318 -1.126244e-06
-0.080068 -1.147274e-06
-0.079818 -1.168172e-06
-0.079568 -1.188931e-06
-0.079318 -1.209544e-06
-0.079068 -1.230005e-06
-0.078818 -1.250307e-06
-0.078568 -1.270443e-06
-0.078318 -1.290407e-06
-0.078068 -1.310192e-06
-0.077818 -1.329791e-06
-0.077568 -1.349198e-06
-0.077318 -1.368407e-06
-0.077068 -1.387412e-06
-0.076818 -1.406206e-06
-0.076568 -1.424783e-06
-0.076318 -1.443137e-06
-0.076068 -1.461262e-06
-0.075818 -1.479153e-06
-0.075568 -1.496803e-06
-0.075318 -1.514206e-06
-0.075068 -1.531358e-06
-0.074818 -1.548252e-06
-0.074568 -1.564883e-06
-0.074318 -1.581246e-06
-0.074068 -1.597335e-06
-0.073818 -1.613145e-06
-0.073568 -1.628672e-06
-0.073318 -1.643910e-06
-0.073068 -1.658854e-06
-0.072818 -1.673499e-06
-0.072568 -1.687842e-06
-0.072318 -1.701876e-06
-0.072068 -1.715599e-06
-0.071818 -1.729004e-06
-0.071568 -1.742089e-06
-0.071318 -1.754850e-06
-0.071068 -1.767281e-06
-0.070818 -1.779379e-06
-0.070568 -1.791140e-06
-0.070318 -1.802562e-06
-0.070068 -1.813639e-06
-0.069818 -1.824369e-06
-0.069568 -1.834748e-06
-0.069318 -1.844773e-06
-0.069068 -1.854441e-06
-0.068818 -1.863749e-06
-0.068568 -1.872694e-06
-0.068318 -1.881274e-06
-0.068068 -1.889485e-06
-0.067818 -1.897326e-06
-0.067568 -1.904794e-06
-0.067318 -1.911887e-06
-0.067068 -1.918602e-06
-0.066818 -1.924938e-06
-0.066568 -1.930892e-06
-0.066318 -1.936464e-06
-0.066068 -1.941652e-06
-0.065818 -1.946453e-06
-0.065568 -1.950867e-06
-0.065318 -1.954893e-06
-0.065068 -1.958529e-06
-0.064818 -1.961774e-06
-0.064568 -1.964629e-06
-0.064318 -1.967091e-06
-0.064068 -1.969161e-06
-0.063818 -1.970837e-06
-0.063568 -1.972121e-06
-0.063318 -1.973011e-06
-0.063068 -1.973508e-06
-0.062818 -1.973611e-06
-0.062568 -1.973321e-06
-0.062318 -1.972638e-06
-0.062068 -1.971563e-06
-0.061818 -1.970097e-06
-0.061568 -1.968239e-06
-0.061318 -1.965992e-06
-0.061068 -1.963355e-06
-0.060818 -1.960331e-06
-0.060568 -1.956919e-06
-0.060318 -1.953123e-06
-0.060068 -1.948943e-06
-0.059818 -1.944381e-06
-0.059568 -1.939438e-06
-0.059318 -1.934117e-06
-0.059068 -1.928420e-06
-0.058818 -1.922348e-06
-0.058568 -1.915904e-06
-0.058318 -1.909091e-06
-0.058068 -1.901910e-06
-0.057818 -1.894365e-06
-0.057568 -1.886458e-06
-0.057318 -1.878192e-06
-0.057068 -1.869570e-06
-0.056818 -1.860595e-06
-0.056568 -1.851270e-06
-0.056318 -1.841599e-06
-0.056068 -1.831585e-06
-0.055818 -1.821231e-06
-0.055568 -1.810542e-06
-0.055318 -1.799521e-06
-0.055068 -1.788171e-06
-0.054818 -1.776497e-06
-0.054568 -1.764503e-06
-0.054318 -1.752193e-06
-0.054068 -1.739571e-06
-0.053818 -1.726642e-06
-0.053568 -1.713410e-06
-0.053318 -1.699879e-06
-0.053068 -1.686055e-06
-0.052818 -1.671942e-06
-0.052568 -1.657545e-06
-0.052318 -1.642868e-06
-0.052068 -1.627918e-06
-0.051818 -1.612698e-06
-0.051568 -1.597214e-06
-0.051318 -1.581472e-06
-0.051068 -1.565477e-06
-0.050818 -1.549233e-06
-0.050568 -1.532748e-06
-0.050318 -1.516025e-06
-0.050068 -1.499072e-06
-0.049818 -1.481893e-06
-0.049568 -1.464495e-06
-0.049318 -1.446883e-06
-0.049068 -1.429063e-06
-0.048818 -1.411041e-06
-0.048568 -1.392824e-06
-0.048318 -1.374417e-06
-0.048068 -1.355826e-06
-0.047818 -1.337059e-06
-0.047568 -1.318120e-06
-0.047318 -1.299017e-06
-0.047068 -1.279755e-06
-0.046818 -1.260342e-06
-0.046568 -1.240783e-06
-0.046318 -1.221086e-06
-0.046068 -1.201256e-06
-0.045818 -1.181300e-06
-0.045568 -1.161226e-06
-0.045318 -1.141039e-06
-0.045068 -1.120746e-06
-0.044818 -1.100354e-06
-0.044568 -1.079870e-06
-0.044318 -1.059300e-06
-0.044068 -1.038652e-06
-0.043818 -1.017932e-06
-0.043568 -9.971466e-07
-0.043318 -9.763031e-07
-0.043068 -9.554082e-07
-0.042818 -9.344688e-07
-0.042568 -9.134917e-07
-0.042318 -8.924839e-07
-0.042068 -8.714522e-07
-0.041818 -8.504035e-07
-0.041568 -8.293447e-07
-0.041318 -8.082827e-07
-0.041068 -7.872244e-07
-0.040818 -7.661766e-07
-0.040568 -7.451462e-07
-0.040318 -7.241401e-07
-0.040068 -7.031651e-07
-0.039818 -6.822279e-07
-0.039568 -6.613355e-07
-0.039318 -6.404945e-07
-0.039068 -6.197118e-07
-0.038818 -5.989941e-07
-0.038568 -5.783481e-07
-0.038318 -5.577804e-07
-0.038068 -5.372977e-07
-0.037818 -5.169066e-07
-0.037568 -4.966137e-07
-0.037318 -4.764255e-07
-0.037068 -4.563485e-07
-0.036818 -4.363892e-07
-0.036568 -4.165540e-07
-0.036318 -3.968492e-07
-0.036068 -3.772811e-07
-0.035818 -3.578560e-07
-0.035568 -3.385801e-07
-0.035318 -3.194596e-07
-0.035068 -3.005006e-07
-0.034818 -2.817090e-07
-0.034568 -2.630910e-07
-0.034318 -2.446523e-07
-0.034068 -2.263988e-07
-0.033818 -2.083364e-07
-0.033568 -1.904708e-07
-0.033318 -1.728075e-07
-0.033068 -1.553521e-07
-0.032818 -1.381103e-07
-0.032568 -1.210873e-07
-0.032318 -1.042885e-07
-0.032068 -8.771931e-08
-0.031818 -7.138476e-08
-0.031568 -5.529002e-08
-0.031318 -3.944009e-08
-0.031068 -2.383993e-08
-0.030818 -8.494391e-09
-0.030568 6.591776e-09
-0.030318 2.141389e-08
-0.030068 3.596737e-08
-0.029818 5.024773e-08
-0.029568 6.425056e-08
-0.029318 7.797158e-08
-0.029068 9.140657e-08
-0.028818 1.045514e-07
-0.028568 1.174022e-07
-0.028318 1.299548e-07
-0.028068 1.422057e-07
-0.027818 1.541510e-07
-0.027568 1.657871e-07
-0.027318 1.771106e-07
-0.027068 1.881181e-07
-0.026818 1.988063e-07
-0.026568 2.091720e-07
-0.026318 2.192122e-07
-0.026068 2.289239e-07
-0.025818 2.383042e-07
-0.025568 2.473505e-07
-0.025318 2.560602e-07
-0.025068 2.644306e-07
-0.024818 2.724595e-07
-0.024568 2.801445e-07
-0.024318 2.874836e-07
-0.024068 2.944746e-07
-0.023818 3.011156e-07
-0.023568 3.074048e-07
-0.023318 3.133406e-07
-0.023068 3.189213e-07
-0.022818 3.241455e-07
-0.022568 3.290118e-07
-0.022318 3.335191e-07
-0.022068 3.376662e-07
-0.021818 3.414522e-07
-0.021568 3.448761e-07
-0.021318 3.479373e-07
-0.021068 3.506352e-07
-0.020818 3.529691e-07
-0.020568 3.549389e-07
-0.020318 3.565441e-07
-0.020068 3.577847e-07
-0.019818 3.586606e-07
-0.019568 3.591719e-07
-0.019318 3.593189e-07
-0.019068 3.591019e-07
-0.018818 3.585213e-07
-0.018568 3.575778e-07
-0.018318 3.562720e-07
-0.018068 3.546048e-07
-0.017818 3.525770e-07
-0.017568 3.501898e-07
-0.017318 3.474443e-07
-0.017068 3.443418e-07
-0.016818 3.408837e-07
-0.016568 3.370714e-07
-0.016318 3.329068e-07
-0.016068 3.283914e-07
-0.015818 3.235272e-07
-0.015568 3.183162e-07
-0.015318 3.127603e-07
-0.015068 3.068619e-07
-0.014818 3.006232e-07
-0.014568 2.940467e-07
-0.014318 2.871349e-07
-0.014068 2.798903e-07
-0.013818 2.723159e-07
-0.013568 2.644144e-07
-0.013318 2.561887e-07
-0.013068 2.476419e-07
-0.012818 2.387773e-07
-0.012568 2.295980e-07
-0.012318 2.201074e-07
-0.012068 2.103090e-07
-0.011818 2.002064e-07
-0.011568 1.898032e-07
-0.011318 1.791031e-07
-0.011068 1.681100e-07
-0.010818 1.568279e-07
-0.010568 1.452608e-07
-0.010318 1.334127e-07
-0.010068 1.212880e-07
-0.009818 1.088909e-07
-0.009568 9.622586e-08
-0.009318 8.329724e-08
-0.009068 7.010965e-08
-0.008818 5.666772e-08
-0.008568 4.297616e-08
-0.008318 2.903976e-08
-0.008068 1.486339e-08
-0.007818 4.519822e-10
-0.007568 -1.418944e-08
-0.007318 -2.905580e-08
-0.007068 -4.414194e-08
-0.006818 -5.944263e-08
-0.006568 -7.495259e-08
-0.006318 -9.066647e-08
-0.006068 -1.065788e-07
-0.005818 -1.226843e-07
-0.005568 -1.389772e-07
-0.005318 -1.554520e-07
-0.005068 -1.721030e-07
-0.004818 -1.889247e-07
-0.004568 -2.059111e-07
-0.004318 -2.230565e-07
-0.004068 -2.403552e-07
-0.003818 -2.578011e-07
-0.003568 -2.753883e-07
-0.003318 -2.931110e-07
-0.003068 -3.109629e-07
-0.002818 -3.289382e-07
-0.002568 -3.470308e-07
-0.002318 -3.652344e-07
-0.002068 -3.835430e-07
-0.001818 -4.019503e-07
-0.001568 -4.204502e-07
-0.001318 -4.390365e-07
-0.001068 -4.577029e-07
-0.000818 -4.764430e-07
-0.000568 -4.952507e-07
-0.000318 -5.141196e-07
-0.000068 -5.330434e-07
0.000182 -5.520157e-07
0.000432 -5.710302e-07
0.000682 -5.900806e-07
0.000932 -6.091604e-07
0.001182 -6.282634e-07
0.001432 -6.473832e-07
0.001682 -6.665133e-07
0.001932 -6.856474e-07
0.002182 -7.047792e-07
0.002432 -7.239023e-07
0.002682 -7.430104e-07
0.002932 -7.620971e-07
0.003182 -7.811561e-07
0.003432 -8.001812e-07
0.003682 -8.191659e-07
0.003932 -8.381040e-07
0.004182 -8.569894e-07
0.004432 -8.758157e-07
0.004682 -8.945767e-07
0.004932 -9.132664e-07
0.005182 -9.318784e-07
0.005432 -9.504068e-07
0.005682 -9.688454e-07
0.005932 -9.871882e-07
0.006182 -1.005429e-06
0.006432 -1.023562e-06
0.006682 -1.041582e-06
0.006932 -1.059482e-06
0.007182 -1.077256e-06
0.007432 -1.094899e-06
0.007682 -1.112405e-06
0.007932 -1.129768e-06
0.008182 -1.146983e-06
0.008432 -1.164044e-06
0.008682 -1.180946e-06
0.008932 -1.197682e-06
0.009182 -1.214248e-06
0.009432 -1.230639e-06
0.009682 -1.246848e-06
0.009932 -1.262871e-06
0.010182 -1.278702e-06
0.010432 -1.294337e-06
0.010682 -1.309770e-06
0.010932 -1.324997e-06
0.011182 -1.340012e-06
0.011432 -1.354811e-06
0.011682 -1.369389e-06
0.011932 -1.383741e-06
0.012182 -1.397863e-06
0.012432 -1.411750e-06
0.012682 -1.425398e-06
0.012932 -1.438803e-06
0.013182 -1.451959e-06
0.013432 -1.464864e-06
0.013682 -1.477512e-06
0.013932 -1.489901e-06
0.014182 -1.502025e-06
0.014432 -1.513882e-06
0.014682 -1.525467e-06
0.014932 -1.536777e-06
0.015182 -1.547808e-06
0.015432 -1.558557e-06
0.015682 -1.569020e-06
0.015932 -1.579195e-06
0.016182 -1.589077e-06
0.016432 -1.598665e-06
0.016682 -1.607954e-06
0.016932 -1.616943e-06
0.017182 -1.625628e-06
0.017432 -1.634007e-06
0.017682 -1.642077e-06
0.017932 -1.649836e-06
0.018182 -1.657281e-06
0.018432 -1.664411e-06
0.018682 -1.671222e-06
0.018932 -1.677713e-06
0.019182 -1.683882e-06
0.019432 -1.689728e-06
0.019682 -1.695248e-06
0.019932 -1.700440e-06
0.020182 -1.705305e-06
0.020432 -1.709839e-06
0.020682 -1.714042e-06
0.020932 -1.717913e-06
0.021182 -1.721450e-06
0.021432 -1.724652e-06
0.021682 -1.727520e-06
0.021932 -1.730051e-06
0.022182 -1.732246e-06
0.022432 -1.734104e-06
0.022682 -1.735624e-06
0.022932 -1.736807e-06
0.023182 -1.737651e-06
0.023432 -1.738158e-06
0.023682 -1.738326e-06
0.023932 -1.738157e-06
0.024182 -1.737650e-06
0.024432 -1.736806e-06
0.024682 -1.735626e-06
0.024932 -1.734109e-06
0.025182 -1.732258e-06
0.025432 -1.730071e-06
0.025682 -1.727551e-06
0.025932 -1.724699e-06
0.026182 -1.721515e-06
0.026432 -1.718001e-06
0.026682 -1.714158e-06
0.026932 -1.709988e-06
0.027182 -1.705492e-06
0.027432 -1.700673e-06
0.027682 -1.695531e-06
0.027932 -1.690068e-06
0.028182 -1.684287e-06
0.028432 -1.678190e-06
0.028682 -1.671779e-06
0.028932 -1.665056e-06
0.029182 -1.658024e-06
0.029432 -1.650684e-06
0.029682 -1.643041e-06
0.029932 -1.635096e-06
0.030182 -1.626852e-06
0.030432 -1.618312e-06
0.030682 -1.609479e-06
0.030932 -1.600356e-06
0.031182 -1.590946e-06
0.031432 -1.581253e-06
0.031682 -1.571280e-06
0.031932 -1.561030e-06
0.032182 -1.550507e-06
0.032432 -1.539715e-06
0.032682 -1.528656e-06
0.032932 -1.517336e-06
0.033182 -1.505757e-06
0.033432 -1.493924e-06
0.033682 -1.481841e-06
0.033932 -1.469511e-06
0.034182 -1.456940e-06
0.034432 -1.444130e-06
0.034682 -1.431088e-06
0.034932 -1.417816e-06
0.035182 -1.404320e-06
0.035432 -1.390603e-06
0.035682 -1.376671e-06
0.035932 -1.362529e-06
0.036182 -1.348181e-06
0.036432 -1.333631e-06
0.036682 -1.318885e-06
0.036932 -1.303947e-06
0.037182 -1.288824e-06
0.037432 -1.273518e-06
0.037682 -1.258037e-06
0.037932 -1.242384e-06
0.038182 -1.226565e-06
0.038432 -1.210586e-06
0.038682 -1.194451e-06
0.038932 -1.178166e-06
0.039182 -1.161737e-06
0.039432 -1.145168e-06
0.039682 -1.128465e-06
0.039932 -1.111634e-06
0.040182 -1.094680e-06
0.040432 -1.077610e-06
0.040682 -1.060427e-06
0.040932 -1.043139e-06
0.041182 -1.025751e-06
0.041432 -1.008268e-06
0.041682 -9.906957e-07
0.041932 -9.730409e-07
0.042182 -9.553089e-07
0.042432 -9.375053e-07
0.042682 -9.196362e-07
0.042932 -9.017072e-07
0.043182 -8.837243e-07
0.043432 -8.656932e-07
0.043682 -8.476199e-07
0.043932 -8.295103e-07
0.044182 -8.113701e-07
0.044432 -7.932054e-07
0.044682 -7.750220e-07
0.044932 -7.568258e-07
0.045182 -7.386227e-07
0.045432 -7.204185e-07
0.045682 -7.022192e-07
0.045932 -6.840307e-07
0.046182 -6.658588e-07
0.046432 -6.477093e-07
0.046682 -6.295882e-07
0.046932 -6.115012e-07
0.047182 -5.934542e-07
0.047432 -5.754529e-07
0.047682 -5.575032e-07
0.047932 -5.396108e-07
0.048182 -5.217814e-07
0.048432 -5.040207e-07
0.048682 -4.863345e-07
0.048932 -4.687283e-07
0.049182 -4.512079e-07
0.049432 -4.337787e-07
0.049682 -4.164463e-07
0.049932 -3.992163e-07
0.050182 -3.820940e-07
0.050432 -3.650851e-07
0.050682 -3.481948e-07
0.050932 -3.314285e-07
0.051182 -3.147915e-07
0.051432 -2.982891e-07
0.051682 -2.819264e-07
0.051932 -2.657088e-07
0.052182 -2.496411e-07
0.052432 -2.337286e-07
0.052682 -2.179762e-07
0.052932 -2.023888e-07
0.053182 -1.869714e-07
0.053432 -1.717288e-07
0.053682 -1.566657e-07
0.053932 -1.417869e-07
0.054182 -1.270969e-07
0.054432 -1.126004e-07
0.054682 -9.830182e-08
0.054932 -8.420566e-08
0.055182 -7.031627e-08
0.055432 -5.663793e-08
0.055682 -4.317489e-08
0.055932 -2.993128e-08
0.056182 -1.691118e-08
0.056432 -4.118586e-09
0.056682 8.442575e-09
0.056932 2.076846e-08
0.057182 3.285532e-08
0.057432 4.469946e-08
0.057682 5.629730e-08
0.057932 6.764530e-08
0.058182 7.874005e-08
0.058432 8.957820e-08
0.058682 1.001565e-07
0.058932 1.104718e-07
0.059182 1.205209e-07
0.059432 1.303010e-07
0.059682 1.398090e-07
0.059932 1.490422e-07
0.060182 1.579979e-07
0.060432 1.666735e-07
0.060682 1.750663e-07
0.060932 1.831740e-07
0.061182 1.909943e-07
0.061432 1.985248e-07
0.061682 2.057635e-07
0.061932 2.127082e-07
0.062182 2.193571e-07
0.062432 2.257082e-07
0.062682 2.317599e-07
0.062932 2.375104e-07
0.063182 2.429581e-07
0.063432 2.481017e-07
0.063682 2.529398e-07
0.063932 2.574711e-07
0.064182 2.616945e-07
0.064432 2.656088e-07
0.064682 2.692132e-07
0.064932 2.725068e-07
0.065182 2.754888e-07
0.065432 2.781586e-07
0.065682 2.805156e-07
0.065932 2.825595e-07
0.066182 2.842898e-07
0.066432 2.857064e-07
0.066682 2.868090e-07
0.066932 2.875977e-07
0.067182 2.880725e-07
0.067432 2.882336e-07
0.067682 2.880813e-07
0.067932 2.876159e-07
0.068182 2.868380e-07
0.068432 2.857480e-07
0.068682 2.843468e-07
0.068932 2.826350e-07
0.069182 2.806135e-07
0.069432 2.782834e-07
0.069682 2.756456e-07
0.069932 2.727015e-07
0.070182 2.694522e-07
0.070432 2.658991e-07
0.070682 2.620438e-07
0.070932 2.578877e-07
0.071182 2.534327e-07
0.071432 2.486803e-07
0.071682 2.436325e-07
0.071932 2.382913e-07
0.072182 2.326586e-07
0.072432 2.267367e-07
0.072682 2.205278e-07
0.072932 2.140341e-07
0.073182 2.072582e-07
0.073432 2.002024e-07
0.073682 1.928695e-07
0.073932 1.852621e-07
0.074182 1.773829e-07
0.074432 1.692349e-07
0.074682 1.608209e-07
0.074932 1.521440e-07
0.075182 1.432073e-07
0.075432 1.340140e-07
0.075682 1.245674e-07
0.075932 1.148708e-07
0.076182 1.049277e-07
0.076432 9.474148e-08
0.076682 8.431582e-08
0.076932 7.365437e-08
0.077182 6.276084e-08
0.077432 5.163905e-08
0.077682 4.029287e-08
0.077932 2.872625e-08
0.078182 1.694319e-08
0.078432 4.947795e-09
0.078682 -7.255806e-09
0.078932 -1.966340e-08
0.079182 -3.227071e-08
0.079432 -4.507340e-08
0.079682 -5.806708e-08
0.079932 -7.124729e-08
0.080182 -8.460953e-08
0.080432 -9.814922e-08
0.080682 -1.118618e-07
0.080932 -1.257425e-07
0.081182 -1.397866e-07
0.081432 -1.539894e-07
0.081682 -1.683461e-07
0.081932 -1.828518e-07
0.082182 -1.975015e-07
0.082432 -2.122904e-07
0.082682 -2.272134e-07
0.082932 -2.422656e-07
0.083182 -2.574417e-07
0.083432 -2.727368e-07
0.083682 -2.881457e-07
0.083932 -3.036632e-07
0.084182 -3.192841e-07
0.084432 -3.350032e-07
0.084682 -3.508152e-07
0.084932 -3.667148e-07
0.085182 -3.826968e-07
0.085432 -3.987558e-07
0.085682 -4.148864e-07
0.085932 -4.310832e-07
0.086182 -4.473410e-07
0.086432 -4.636542e-07
0.086682 -4.800175e-07
0.086932 -4.964255e-07
0.087182 -5.128726e-07
0.087432 -5.293535e-07
0.087682 -5.458627e-07
0.087932 -5.623947e-07
0.088182 -5.789441e-07
0.088432 -5.955054e-07
0.088682 -6.120732e-07
0.088932 -6.286420e-07
0.089182 -6.452064e-07
0.089432 -6.617609e-07
0.089682 -6.783000e-07
0.089932 -6.948184e-07
0.090182 -7.113107e-07
0.090432 -7.277713e-07
0.090682 -7.441950e-07
0.090932 -7.605764e-07
0.091182 -7.769101e-07
0.091432 -7.931907e-07
0.091682 -8.094131e-07
0.091932 -8.255718e-07
0.092182 -8.416616e-07
0.092432 -8.576774e-07
0.092682 -8.736138e-07
0.092932 -8.894657e-07
0.093182 -9.052280e-07
0.093432 -9.208956e-07
0.093682 -9.364633e-07
0.093932 -9.519262e-07
0.094182 -9.672792e-07
0.094432 -9.825175e-07
0.094682 -9.976360e-07
0.094932 -1.012630e-06
0.095182 -1.027494e-06
0.095432 -1.042225e-06
0.095682 -1.056816e-06
0.095932 -1.071264e-06
0.096182 -1.085563e-06
0.096432 -1.099710e-06
0.096682 -1.113699e-06
0.096932 -1.127527e-06
0.097182 -1.141188e-06
0.097432 -1.154679e-06
0.097682 -1.167995e-06
0.097932 -1.181131e-06
0.098182 -1.194085e-06
0.098432 -1.206851e-06
0.098682 -1.219425e-06
0.098932 -1.231805e-06
0.099182 -1.243985e-06
0.099432 -1.255961e-06
0.099682 -1.267731e-06
0.099932 -1.279291e-06
0.100182 -1.290636e-06
0.100432 -1.301763e-06
0.100682 -1.312669e-06
0.100932 -1.323350e-06
0.101182 -1.333804e-06
0.101432 -1.344026e-06
0.101682 -1.354014e-06
0.101932 -1.363764e-06
0.102182 -1.373274e-06
0.102432 -1.382540e-06
0.102682 -1.391561e-06
0.102932 -1.400332e-06
0.103182 -1.408852e-06
0.103432 -1.417117e-06
0.103682 -1.425126e-06
0.103932 -1.432876e-06
0.104182 -1.440364e-06
0.104432 -1.447589e-06
0.104682 -1.454548e-06
0.104932 -1.461239e-06
0.105182 -1.467660e-06
0.105432 -1.473810e-06
0.105682 -1.479686e-06
0.105932 -1.485287e-06
0.106182 -1.490612e-06
0.106432 -1.495658e-06
0.106682 -1.500425e-06
0.106932 -1.504911e-06
0.107182 -1.509115e-06
0.107432 -1.513036e-06
0.107682 -1.516673e-06
0.107932 -1.520025e-06
0.108182 -1.523091e-06
0.108432 -1.525870e-06
0.108682 -1.528363e-06
0.108932 -1.530567e-06
0.109182 -1.532484e-06
0.109432 -1.534113e-06
0.109682 -1.535453e-06
0.109932 -1.536504e-06
0.110182 -1.537267e-06
0.110432 -1.537741e-06
0.110682 -1.537927e-06
0.110932 -1.537825e-06
0.111182 -1.537436e-06
0.111432 -1.536759e-06
0.111682 -1.535796e-06
0.111932 -1.534547e-06
0.112182 -1.533014e-06
0.112432 -1.531197e-06
0.112682 -1.529096e-06
0.112932 -1.526714e-06
0.113182 -1.524052e-06
0.113432 -1.521110e-06
0.113682 -1.517891e-06
0.113932 -1.514396e-06
0.114182 -1.510626e-06
0.114432 -1.506584e-06
0.114682 -1.502271e-06
0.114932 -1.497689e-06
0.115182 -1.492841e-06
0.115432 -1.487728e-06
0.115682 -1.482353e-06
0.115932 -1.476718e-06
0.116182 -1.470827e-06
0.116432 -1.464680e-06
0.116682 -1.458282e-06
0.116932 -1.451636e-06
0.117182 -1.444743e-06
0.117432 -1.437607e-06
0.117682 -1.430232e-06
0.117932 -1.422620e-06
0.118182 -1.414775e-06
0.118432 -1.406701e-06
0.118682 -1.398401e-06
0.118932 -1.389879e-06
0.119182 -1.381139e-06
0.119432 -1.372185e-06
0.119682 -1.363020e-06
0.119932 -1.353650e-06
0.120182 -1.344078e-06
0.120432 -1.334309e-06
0.120682 -1.324347e-06
0.120932 -1.314197e-06
0.121182 -1.303864e-06
0.121432 -1.293353e-06
0.121682 -1.282669e-06
0.121932 -1.271816e-06
0.122182 -1.260801e-06
0.122432 -1.249629e-06
0.122682 -1.238304e-06
0.122932 -1.226834e-06
0.123182 -1.215223e-06
0.123432 -1.203478e-06
0.123682 -1.191605e-06
0.123932 -1.179609e-06
0.124182 -1.167498e-06
0.124432 -1.155277e-06
0.124682 -1.142954e-06
0.124932 -1.130535e-06
0.125182 -1.118027e-06
0.125432 -1.105438e-06
0.125682 -1.092773e-06
0.125932 -1.080042e-06
0.126182 -1.067251e-06
0.126432 -1.054408e-06
0.126682 -1.041522e-06
0.126932 -1.028599e-06
0.127182 -1.015649e-06
0.127432 -1.002680e-06
0.127682 -9.897002e-07
0.127932 -9.767187e-07
0.128182 -9.637446e-07
0.128432 -9.507870e-07
0.128682 -9.378555e-07
0.128932 -9.249596e-07
0.129182 -9.121091e-07
0.129432 -8.993143e-07
0.129682 -8.865855e-07
0.129932 -8.739331e-07
0.130182 -8.613681e-07
0.130432 -8.489014e-07
0.130682 -8.365445e-07
0.130932 -8.243089e-07
0.131182 -8.122066e-07
0.131432 -8.002497e-07
0.131682 -7.884506e-07
0.131932 -7.768222e-07
0.132182 -7.653776e-07
0.132432 -7.541302e-07
0.132682 -7.430938e-07
0.132932 -7.322824e-07
0.133182 -7.217107e-07
0.133432 -7.113934e-07
0.133682 -7.013457e-07
0.133932 -6.915834e-07
0.134182 -6.821225e-07
0.134432 -6.729795e-07
0.134682 -6.641713e-07
0.134932 -6.557153e-07
0.135182 -6.476294e-07
0.135432 -6.399320e-07
0.135682 -6.326420e-07
0.135932 -6.257786e-07
0.136182 -6.193619e-07
0.136432 -6.134124e-07
0.136682 -6.079512e-07
0.136932 -6.030000e-07
0.137182 -5.985810e-07
0.137432 -5.947173e-07
0.137682 -5.914326e-07
0.137932 -5.887510e-07
0.138182 -5.866977e-07
0.138432 -5.852985e-07
0.138682 -5.845799e-07
0.138932 -5.845692e-07
0.139182 -5.852948e-07
0.139432 -5.867854e-07
0.139682 -5.890712e-07
0.139932 -5.921828e-07
0.140182 -5.961521e-07
0.140432 -6.010117e-07
0.140682 -6.067954e-07
0.140932 -6.135379e-07
0.141182 -6.212751e-07
0.141432 -6.300440e-07
0.141682 -6.398826e-07
0.141932 -6.508302e-07
0.142182 -6.629274e-07
0.142432 -6.762159e-07
0.142682 -6.907389e-07
0.142932 -7.065406e-07
0.143182 -7.236671e-07
0.143432 -7.421656e-07
0.143682 -7.620849e-07
0.143932 -7.834751e-07
0.144182 -8.063884e-07
0.144432 -8.308781e-07
0.144682 -8.569996e-07
0.144932 -8.848097e-07
0.145182 -9.143672e-07
0.145432 -9.457329e-07
0.145682 -9.789691e-07
0.145932 -1.014140e-06
0.146182 -1.051313e-06
0.146432 -1.090557e-06
0.146682 -1.131941e-06
0.146932 -1.175540e-06
0.147182 -1.221428e-06
0.147432 -1.269683e-06
0.147682 -1.320386e-06
0.147932 -1.373618e-06
0.148182 -1.429466e-06
0.148432 -1.488017e-06
0.148682 -1.549362e-06
0.148932 -1.613594e-06
0.149182 -1.680810e-06
0.149432 -1.751108e-06
0.149682 -1.824592e-06
0.149932 -1.901367e-06
0.150182 -1.981542e-06
0.150432 -2.065229e-06
0.150682 -2.152544e-06
0.150932 -2.243605e-06
0.151182 -2.338536e-06
0.151432 -2.437463e-06
0.151682 -2.540516e-06
0.151932 -2.647831e-06
0.152182 -2.759544e-06
0.152432 -2.875799e-06
0.152682 -2.996742e-06
0.152932 -3.122525e-06
0.153182 -3.253303e-06
0.153432 -3.389237e-06
0.153682 -3.530490e-06
0.153932 -3.677234e-06
0.154182 -3.829643e-06
0.154432 -3.987896e-06
0.154682 -4.152180e-06
0.154932 -4.322684e-06
0.155182 -4.499604e-06
0.155432 -4.683143e-06
0.155682 -4.873506e-06
0.155932 -5.070909e-06
0.156182 -5.275569e-06
0.156432 -5.487713e-06
0.156682 -5.707573e-06
0.156932 -5.935386e-06
0.157182 -6.171398e-06
0.157432 -6.415861e-06
0.157682 -6.669032e-06
0.157932 -6.931179e-06
0.158182 -7.202574e-06
0.158432 -7.483498e-06
0.158682 -7.774239e-06
0.158932 -8.075092e-06
0.159182 -8.386362e-06
0.159432 -8.708361e-06
0.159682 -9.041408e-06
0.159932 -9.385832e-06
0.160182 -9.741970e-06
0.160432 -1.011017e-05
0.160682 -1.049078e-05
0.160932 -1.088418e-05
0.161182 -1.129073e-05
0.161432 -1.171081e-05
0.161682 -1.214482e-05
0.161932 -1.259316e-05
0.162182 -1.305625e-05
0.162432 -1.353450e-05
0.162682 -1.402836e-05
0.162932 -1.453826e-05
0.163182 -1.506466e-05
0.163432 -1.560802e-05
0.163682 -1.616883e-05
0.163932 -1.674756e-05
0.164182 -1.734473e-05
0.164432 -1.796084e-05
0.164682 -1.859642e-05
0.164932 -1.925200e-05
0.165182 -1.992814e-05
0.165432 -2.062538e-05
0.165682 -2.134432e-05
0.165932 -2.208553e-05
0.166182 -2.284962e-05
0.166432 -2.363719e-05
0.166682 -2.444888e-05
0.166932 -2.528533e-05
0.167182 -2.614719e-05
0.167432 -2.703513e-05
0.167682 -2.794984e-05
0.167932 -2.889201e-05
0.168182 -2.986235e-05
0.168432 -3.086160e-05
0.168682 -3.189050e-05
0.168932 -3.294980e-05
0.169182 -3.404028e-05
0.169432 -3.516273e-05
0.169682 -3.631795e-05
0.169932 -3.750676e-05
0.170182 -3.873000e-05
0.170432 -3.998853e-05
0.170682 -4.128321e-05
0.170932 -4.261493e-05
0.171182 -4.398460e-05
0.171432 -4.539313e-05
0.171682 -4.684146e-05
0.171932 -4.833054e-05
0.172182 -4.986135e-05
0.172432 -5.143487e-05
0.172682 -5.305212e-05
0.172932 -5.471411e-05
0.173182 -5.642189e-05
0.173432 -5.817652e-05
0.173682 -5.997907e-05
0.173932 -6.183063e-05
0.174182 -6.373233e-05
0.174432 -6.568530e-05
0.174682 -6.769068e-05
0.174932 -6.974964e-05
0.175182 -7.186336e-05
0.175432 -7.403306e-05
0.175682 -7.625995e-05
0.175932 -7.854528e-05
0.176182 -8.089030e-05
0.176432 -8.329629e-05
0.176682 -8.576454e-05
0.176932 -8.829637e-05
0.177182 -9.089312e-05
0.177432 -9.355612e-05
0.177682 -9.628675e-05
0.177932 -9.908639e-05
0.178182 -1.019564e-04
0.178432 -1.048983e-04
0.178682 -1.079135e-04
0.178932 -1.110034e-04
0.179182 -1.141694e-04
0.179432 -1.174132e-04
0.179682 -1.207362e-04
0.179932 -1.241399e-04
0.180182 -1.276258e-04
0.180432 -1.311955e-04
0.180682 -1.348506e-04
0.180932 -1.385927e-04
0.181182 -1.424233e-04
0.181432 -1.463441e-04
0.181682 -1.503567e-04
0.181932 -1.544627e-04
0.182182 -1.586639e-04
0.182432 -1.629618e-04
0.182682 -1.673582e-04
0.182932 -1.718547e-04
0.183182 -1.764531e-04
0.183432 -1.811550e-04
0.183682 -1.859622e-04
0.183932 -1.908765e-04