-0.138818 1.180256e-05
-0.138568 1.274989e-05
-0.138318 1.368824e-05
-0.138068 1.461718e-05
-0.137818 1.553628e-05
-0.137568 1.644512e-05
-0.137318 1.734329e-05
-0.137068 1.823037e-05
-0.136818 1.910598e-05
-0.136568 1.996970e-05
-0.136318 2.082116e-05
-0.136068 2.165997e-05
-0.135818 2.248576e-05
-0.135568 2.329815e-05
-0.135318 2.409680e-05
-0.135068 2.488135e-05
-0.134818 2.565145e-05
-0.134568 2.640676e-05
-0.134318 2.714696e-05
-0.134068 2.787173e-05
-0.133818 2.858075e-05
-0.133568 2.927372e-05
-0.133318 2.995035e-05
-0.133068 3.061034e-05
-0.132818 3.125342e-05
-0.132568 3.187932e-05
-0.132318 3.248778e-05
-0.132068 3.307854e-05
-0.131818 3.365137e-05
-0.131568 3.420603e-05
-0.131318 3.474229e-05
-0.131068 3.525995e-05
-0.130818 3.575880e-05
-0.130568 3.623864e-05
-0.130318 3.669929e-05
-0.130068 3.714057e-05
-0.129818 3.756231e-05
-0.129568 3.796436e-05
-0.129318 3.834658e-05
-0.129068 3.870882e-05
-0.128818 3.905096e-05
-0.128568 3.937288e-05
-0.128318 3.967448e-05
-0.128068 3.995565e-05
-0.127818 4.021632e-05
-0.127568 4.045641e-05
-0.127318 4.067585e-05
-0.127068 4.087458e-05
-0.126818 4.105255e-05
-0.126568 4.120974e-05
-0.126318 4.134612e-05
-0.126068 4.146167e-05
-0.125818 4.155638e-05
-0.125568 4.163026e-05
-0.125318 4.168332e-05
-0.125068 4.171560e-05
-0.124818 4.172711e-05
-0.124568 4.171791e-05
-0.124318 4.168805e-05
-0.124068 4.163760e-05
-0.123818 4.156662e-05
-0.123568 4.147520e-05
-0.123318 4.136344e-05
-0.123068 4.123144e-05
-0.122818 4.107930e-05
-0.122568 4.090715e-05
-0.122318 4.071513e-05
-0.122068 4.050336e-05
-0.121818 4.027200e-05
-0.121568 4.002122e-05
-0.121318 3.975116e-05
-0.121068 3.946202e-05
-0.120818 3.915397e-05
-0.120568 3.882722e-05
-0.120318 3.848195e-05
-0.120068 3.811838e-05
-0.119818 3.773674e-05
-0.119568 3.733723e-05
-0.119318 3.692011e-05
-0.119068 3.648562e-05
-0.118818 3.603399e-05
-0.118568 3.556550e-05
-0.118318 3.508041e-05
-0.118068 3.457898e-05
-0.117818 3.406151e-05
-0.117568 3.352827e-05
-0.117318 3.297956e-05
-0.117068 3.241568e-05
-0.116818 3.183694e-05
-0.116568 3.124365e-05
-0.116318 3.063613e-05
-0.116068 3.001471e-05
-0.115818 2.937972e-05
-0.115568 2.873149e-05
-0.115318 2.807037e-05
-0.115068 2.739670e-05
-0.114818 2.671085e-05
-0.114568 2.601316e-05
-0.114318 2.530400e-05
-0.114068 2.458374e-05
-0.113818 2.385275e-05
-0.113568 2.311141e-05
-0.113318 2.236010e-05
-0.113068 2.159919e-05
-0.112818 2.082909e-05
-0.112568 2.005017e-05
-0.112318 1.926285e-05
-0.112068 1.846750e-05
-0.111818 1.766454e-05
-0.111568 1.685436e-05
-0.111318 1.603737e-05
-0.111068 1.521399e-05
-0.110818 1.438461e-05
-0.110568 1.354966e-05
-0.110318 1.270954e-05
-0.110068 1.186467e-05
-0.109818 1.101547e-05
-0.109568 1.016236e-05
-0.109318 9.305742e-06
-0.109068 8.446048e-06
-0.108818 7.583694e-06
-0.108568 6.719100e-06
-0.108318 5.852685e-06
-0.108068 4.984868e-06
-0.107818 4.116070e-06
-0.107568 3.246707e-06
-0.107318 2.377198e-06
-0.107068 1.507960e-06
-0.106818 6.394089e-07
-0.106568 -2.280420e-07
-0.106318 -1.093979e-06
-0.106068 -1.957992e-06
-0.105818 -2.819672e-06
-0.105568 -3.678611e-06
-0.105318 -4.534405e-06
-0.105068 -5.386651e-06
-0.104818 -6.234950e-06
-0.104568 -7.078906e-06
-0.104318 -7.918125e-06
-0.104068 -8.752216e-06
-0.103818 -9.580792e-06
-0.103568 -1.040347e-05
-0.103318 -1.121987e-05
-0.103068 -1.202962e-05
-0.102818 -1.283234e-05
-0.102568 -1.362767e-05
-0.102318 -1.441525e-05
-0.102068 -1.519471e-05
-0.101818 -1.596570e-05
-0.101568 -1.672788e-05
-0.101318 -1.748090e-05
-0.101068 -1.822442e-05
-0.100818 -1.895811e-05
-0.100568 -1.968165e-05
-0.100318 -2.039470e-05
-0.100068 -2.109695e-05
-0.099818 -2.178810e-05
-0.099568 -2.246784e-05
-0.099318 -2.313587e-05
-0.099068 -2.379190e-05
-0.098818 -2.443565e-05
-0.098568 -2.506683e-05
-0.098318 -2.568517e-05
-0.098068 -2.629041e-05
-0.097818 -2.688230e-05
-0.097568 -2.746057e-05
-0.097318 -2.802499e-05
-0.097068 -2.857531e-05
-0.096818 -2.911132e-05
-0.096568 -2.963278e-05
-0.096318 -3.013948e-05
-0.096068 -3.063122e-05
-0.095818 -3.110779e-05
-0.095568 -3.156901e-05
-0.095318 -3.201468e-05
-0.095068 -3.244464e-05
-0.094818 -3.285871e-05
-0.094568 -3.325673e-05
-0.094318 -3.363856e-05
-0.094068 -3.400404e-05
-0.093818 -3.435305e-05
-0.093568 -3.468545e-05
-0.093318 -3.500112e-05
-0.093068 -3.529996e-05
-0.092818 -3.558185e-05
-0.092568 -3.584671e-05
-0.092318 -3.609445e-05
-0.092068 -3.632499e-05
-0.091818 -3.653826e-05
-0.091568 -3.673419e-05
-0.091318 -3.691275e-05
-0.091068 -3.707387e-05
-0.090818 -3.721753e-05
-0.090568 -3.734370e-05
-0.090318 -3.745236e-05
-0.090068 -3.754350e-05
-0.089818 -3.761711e-05
-0.089568 -3.767320e-05
-0.089318 -3.771179e-05
-0.089068 -3.773290e-05
-0.088818 -3.773655e-05
-0.088568 -3.772280e-05
-0.088318 -3.769167e-05
-0.088068 -3.764324e-05
-0.087818 -3.757756e-05
-0.087568 -3.749470e-05
-0.087318 -3.739475e-05
-0.087068 -3.727779e-05
-0.086818 -3.714392e-05
-0.086568 -3.699323e-05
-0.086318 -3.682585e-05
-0.086068 -3.664189e-05
-0.085818 -3.644147e-05
-0.085568 -3.622473e-05
-0.085318 -3.599181e-05
-0.085068 -3.574285e-05
-0.084818 -3.547802e-05
-0.084568 -3.519748e-05
-0.084318 -3.490139e-05
-0.084068 -3.458994e-05
-0.083818 -3.426330e-05
-0.083568 -3.392167e-05
-0.083318 -3.356524e-05
-0.083068 -3.319423e-05
-0.082818 -3.280883e-05
-0.082568 -3.240926e-05
-0.082318 -3.199575e-05
-0.082068 -3.156853e-05
-0.081818 -3.112783e-05
-0.081568 -3.067389e-05
-0.081318 -3.020696e-05
-0.081068 -2.972729e-05
-0.080818 -2.923513e-05
-0.080568 -2.873076e-05
-0.080318 -2.821443e-05
-0.080068 -2.768642e-05
-0.079818 -2.714701e-05
-0.079568 -2.659647e-05
-0.079318 -2.603511e-05
-0.079068 -2.546320e-05
-0.078818 -2.488105e-05
-0.078568 -2.428895e-05
-0.078318 -2.368721e-05
-0.078068 -2.307613e-05
-0.077818 -2.245604e-05
-0.077568 -2.182723e-05
-0.077318 -2.119003e-05
-0.077068 -2.054477e-05
-0.076818 -1.989176e-05
-0.076568 -1.923134e-05
-0.076318 -1.856383e-05
-0.076068 -1.788956e-05
-0.075818 -1.720888e-05
-0.075568 -1.652212e-05
-0.075318 -1.582962e-05
-0.075068 -1.513172e-05
-0.074818 -1.442876e-05
-0.074568 -1.372109e-05
-0.074318 -1.300905e-05
-0.074068 -1.229300e-05
-0.073818 -1.157327e-05
-0.073568 -1.085023e-05
-0.073318 -1.012421e-05
-0.073068 -9.395580e-06
-0.072818 -8.664676e-06
-0.072568 -7.931855e-06
-0.072318 -7.197467e-06
-0.072068 -6.461865e-06
-0.071818 -5.725399e-06
-0.071568 -4.988420e-06
-0.071318 -4.251277e-06
-0.071068 -3.514320e-06
-0.070818 -2.777897e-06
-0.070568 -2.042355e-06
-0.070318 -1.308040e-06
-0.070068 -5.752976e-07
-0.069818 1.555305e-07
-0.069568 8.841026e-07
-0.069318 1.610079e-06
-0.069068 2.333123e-06
-0.068818 3.052900e-06
-0.068568 3.769075e-06
-0.068318 4.481320e-06
-0.068068 5.189306e-06
-0.067818 5.892709e-06
-0.067568 6.591206e-06
-0.067318 7.284479e-06
-0.067068 7.972212e-06
-0.066818 8.654093e-06
-0.066568 9.329813e-06
-0.066318 9.999068e-06
-0.066068 1.066156e-05
-0.065818 1.131698e-05
-0.065568 1.196504e-05
-0.065318 1.260546e-05
-0.065068 1.323794e-05
-0.064818 1.386222e-05
-0.064568 1.447800e-05
-0.064318 1.508503e-05
-0.064068 1.568303e-05
-0.063818 1.627174e-05
-0.063568 1.685090e-05
-0.063318 1.742027e-05
-0.063068 1.797960e-05
-0.062818 1.852865e-05
-0.062568 1.906718e-05
-0.062318 1.959496e-05
-0.062068 2.011176e-05
-0.061818 2.061738e-05
-0.061568 2.111159e-05
-0.061318 2.159419e-05
-0.061068 2.206498e-05
-0.060818 2.252376e-05
-0.060568 2.297034e-05
-0.060318 2.340455e-05
-0.060068 2.382620e-05
-0.059818 2.423513e-05
-0.059568 2.463116e-05
-0.059318 2.501415e-05
-0.059068 2.538395e-05
-0.058818 2.574040e-05
-0.058568 2.608338e-05
-0.058318 2.641275e-05
-0.058068 2.672839e-05
-0.057818 2.703017e-05
-0.057568 2.731800e-05
-0.057318 2.759176e-05
-0.057068 2.785136e-05
-0.056818 2.809671e-05
-0.056568 2.832772e-05
-0.056318 2.854433e-05
-0.056068 2.874646e-05
-0.055818 2.893404e-05
-0.055568 2.910704e-05
-0.055318 2.926538e-05
-0.055068 2.940905e-05
-0.054818 2.953799e-05
-0.054568 2.965219e-05
-0.054318 2.975162e-05
-0.054068 2.983627e-05
-0.053818 2.990614e-05
-0.053568 2.996122e-05
-0.053318 3.000153e-05
-0.053068 3.002707e-05
-0.052818 3.003788e-05
-0.052568 3.003397e-05
-0.052318 3.001539e-05
-0.052068 2.998217e-05
-0.051818 2.993438e-05
-0.051568 2.987205e-05
-0.051318 2.979525e-05
-0.051068 2.970406e-05
-0.050818 2.959855e-05
-0.050568 2.947880e-05
-0.050318 2.934490e-05
-0.050068 2.919694e-05
-0.049818 2.903503e-05
-0.049568 2.885928e-05
-0.049318 2.866979e-05
-0.049068 2.846670e-05
-0.048818 2.825011e-05
-0.048568 2.802018e-05
-0.048318 2.777704e-05
-0.048068 2.752082e-05
-0.047818 2.725169e-05
-0.047568 2.696980e-05
-0.047318 2.667530e-05
-0.047068 2.636837e-05
-0.046818 2.604918e-05
-0.046568 2.571790e-05
-0.046318 2.537473e-05
-0.046068 2.501984e-05
-0.045818 2.465343e-05
-0.045568 2.427571e-05
-0.045318 2.388686e-05
-0.045068 2.348711e-05
-0.044818 2.307665e-05
-0.044568 2.265572e-05
-0.044318 2.222453e-05
-0.044068 2.178331e-05
-0.043818 2.133228e-05
-0.043568 2.087169e-05
-0.043318 2.040176e-05
-0.043068 1.992275e-05
-0.042818 1.943489e-05
-0.042568 1.893844e-05
-0.042318 1.843364e-05
-0.042068 1.792076e-05
-0.041818 1.740005e-05
-0.041568 1.687178e-05
-0.041318 1.633620e-05
-0.041068 1.579360e-05
-0.040818 1.524423e-05
-0.040568 1.468837e-05
-0.040318 1.412630e-05
-0.040068 1.355829e-05
-0.039818 1.298463e-05
-0.039568 1.240559e-05
-0.039318 1.182146e-05
-0.039068 1.123253e-05
-0.038818 1.063908e-05
-0.038568 1.004140e-05
-0.038318 9.439778e-06
-0.038068 8.834509e-06
-0.037818 8.225883e-06
-0.037568 7.614193e-06
-0.037318 6.999733e-06
-0.037068 6.382797e-06
-0.036818 5.763680e-06
-0.036568 5.142677e-06
-0.036318 4.520083e-06
-0.036068 3.896193e-06
-0.035818 3.271302e-06
-0.035568 2.645707e-06
-0.035318 2.019701e-06
-0.035068 1.393579e-06
-0.034818 7.676333e-07
-0.034568 1.421582e-07
-0.034318 -4.825549e-07
-0.034068 -1.106215e-06
-0.033818 -1.728533e-06
-0.033568 -2.349219e-06
-0.033318 -2.967988e-06
-0.033068 -3.584553e-06
-0.032818 -4.198630e-06
-0.032568 -4.809939e-06
-0.032318 -5.418198e-06
-0.032068 -6.023130e-06
-0.031818 -6.624458e-06
-0.031568 -7.221911e-06
-0.031318 -7.815216e-06
-0.031068 -8.404105e-06
-0.030818 -8.988313e-06
-0.030568 -9.567576e-06
-0.030318 -1.014163e-05
-0.030068 -1.071023e-05
-0.029818 -1.127311e-05
-0.029568 -1.183003e-05
-0.029318 -1.238073e-05
-0.029068 -1.292497e-05
-0.028818 -1.346252e-05
-0.028568 -1.399313e-05
-0.028318 -1.451658e-05
-0.028068 -1.503263e-05
-0.027818 -1.554106e-05
-0.027568 -1.604165e-05
-0.027318 -1.653418e-05
-0.027068 -1.701844e-05
-0.026818 -1.749422e-05
-0.026568 -1.796132e-05
-0.026318 -1.841954e-05
-0.026068 -1.886868e-05
-0.025818 -1.930855e-05
-0.025568 -1.973898e-05
-0.025318 -2.015977e-05
-0.025068 -2.057076e-05
-0.024818 -2.097177e-05
-0.024568 -2.136263e-05
-0.024318 -2.174320e-05
-0.024068 -2.211330e-05
-0.023818 -2.247280e-05
-0.023568 -2.282155e-05
-0.023318 -2.315940e-05
-0.023068 -2.348623e-05
-0.022818 -2.380190e-05
-0.022568 -2.410630e-05
-0.022318 -2.439930e-05
-0.022068 -2.468080e-05
-0.021818 -2.495068e-05
-0.021568 -2.520886e-05
-0.021318 -2.545522e-05
-0.021068 -2.568969e-05
-0.020818 -2.591217e-05
-0.020568 -2.612260e-05
-0.020318 -2.632090e-05
-0.020068 -2.650700e-05
-0.019818 -2.668084e-05
-0.019568 -2.684238e-05
-0.019318 -2.699155e-05
-0.019068 -2.712832e-05
-0.018818 -2.725265e-05
-0.018568 -2.736452e-05
-0.018318 -2.746388e-05
-0.018068 -2.755074e-05
-0.017818 -2.762506e-05
-0.017568 -2.768685e-05
-0.017318 -2.773611e-05
-0.017068 -2.777283e-05
-0.016818 -2.779702e-05
-0.016568 -2.780872e-05
-0.016318 -2.780792e-05
-0.016068 -2.779467e-05
-0.015818 -2.776899e-05
-0.015568 -2.773092e-05
-0.015318 -2.768052e-05
-0.015068 -2.761782e-05
-0.014818 -2.754288e-05
-0.014568 -2.745577e-05
-0.014318 -2.735655e-05
-0.014068 -2.724529e-05
-0.013818 -2.712208e-05
-0.013568 -2.698699e-05
-0.013318 -2.684011e-05
-0.013068 -2.668154e-05
-0.012818 -2.651137e-05
-0.012568 -2.632971e-05
-0.012318 -2.613667e-05
-0.012068 -2.593236e-05
-0.011818 -2.571691e-05
-0.011568 -2.549042e-05
-0.011318 -2.525304e-05
-0.011068 -2.500490e-05
-0.010818 -2.474614e-05
-0.010568 -2.447689e-05
-0.010318 -2.419731e-05
-0.010068 -2.390754e-05
-0.009818 -2.360775e-05
-0.009568 -2.329810e-05
-0.009318 -2.297874e-05
-0.009068 -2.264985e-05
-0.008818 -2.231161e-05
-0.008568 -2.196418e-05
-0.008318 -2.160775e-05
-0.008068 -2.124250e-05
-0.007818 -2.086863e-05
-0.007568 -2.048632e-05
-0.007318 -2.009577e-05
-0.007068 -1.969717e-05
-0.006818 -1.929073e-05
-0.006568 -1.887666e-05
-0.006318 -1.845516e-05
-0.006068 -1.802645e-05
-0.005818 -1.759073e-05
-0.005568 -1.714823e-05
-0.005318 -1.669916e-05
-0.005068 -1.624375e-05
-0.004818 -1.578221e-05
-0.004568 -1.531479e-05
-0.004318 -1.484170e-05
-0.004068 -1.436317e-05
-0.003818 -1.387945e-05
-0.003568 -1.339076e-05
-0.003318 -1.289735e-05
-0.003068 -1.239945e-05
-0.002818 -1.189729e-05
-0.002568 -1.139113e-05
-0.002318 -1.088120e-05
-0.002068 -1.036775e-05
-0.001818 -9.851029e-06
-0.001568 -9.331274e-06
-0.001318 -8.808736e-06
-0.001068 -8.283661e-06
-0.000818 -7.756299e-06
-0.000568 -7.226897e-06
-0.000318 -6.695706e-06
-0.000068 -6.162974e-06
0.000182 -5.628951e-06
0.000432 -5.093887e-06
0.000682 -4.558031e-06
0.000932 -4.021633e-06
0.001182 -3.484941e-06
0.001432 -2.948204e-06
0.001682 -2.411670e-06
0.001932 -1.875587e-06
0.002182 -1.340201e-06
0.002432 -8.057590e-07
0.002682 -2.725046e-07
0.002932 2.593180e-07
0.003182 7.894663e-07
0.003432 1.317699e-06
0.003682 1.843776e-06
0.003932 2.367460e-06
0.004182 2.888512e-06
0.004432 3.406700e-06
0.004682 3.921789e-06
0.004932 4.433548e-06
0.005182 4.941749e-06
0.005432 5.446164e-06
0.005682 5.946568e-06
0.005932 6.442739e-06
0.006182 6.934457e-06
0.006432 7.421505e-06
0.006682 7.903668e-06
0.006932 8.380734e-06
0.007182 8.852494e-06
0.007432 9.318740e-06
0.007682 9.779271e-06
0.007932 1.023389e-05
0.008182 1.068239e-05
0.008432 1.112458e-05
0.008682 1.156028e-05
0.008932 1.198929e-05
0.009182 1.241143e-05
0.009432 1.282652e-05
0.009682 1.323439e-05
0.009932 1.363486e-05
0.010182 1.402776e-05
0.010432 1.441294e-05
0.010682 1.479021e-05
0.010932 1.515944e-05
0.011182 1.552047e-05
0.011432 1.587314e-05
0.011682 1.621732e-05
0.011932 1.655286e-05
0.012182 1.687962e-05
0.012432 1.719748e-05
0.012682 1.750631e-05
0.012932 1.780597e-05
0.013182 1.809637e-05
0.013432 1.837737e-05
0.013682 1.864887e-05
0.013932 1.891077e-05
0.014182 1.916297e-05
0.014432 1.940536e-05
0.014682 1.963786e-05
0.014932 1.986039e-05
0.015182 2.007285e-05
0.015432 2.027518e-05
0.015682 2.046731e-05
0.015932 2.064915e-05
0.016182 2.082067e-05
0.016432 2.098178e-05
0.016682 2.113246e-05
0.016932 2.127263e-05
0.017182 2.140228e-05
0.017432 2.152134e-05
0.017682 2.162981e-05
0.017932 2.172763e-05
0.018182 2.181481e-05
0.018432 2.189130e-05
0.018682 2.195711e-05
0.018932 2.201223e-05
0.019182 2.205664e-05
0.019432 2.209036e-05
0.019682 2.211339e-05
0.019932 2.212574e-05
0.020182 2.212743e-05
0.020432 2.211848e-05
0.020682 2.209892e-05
0.020932 2.206877e-05
0.021182 2.202808e-05
0.021432 2.197688e-05
0.021682 2.191522e-05
0.021932 2.184315e-05
0.022182 2.176073e-05
0.022432 2.166800e-05
0.022682 2.156505e-05
0.022932 2.145193e-05
0.023182 2.132871e-05
0.023432 2.119549e-05
0.023682 2.105233e-05
0.023932 2.089933e-05
0.024182 2.073657e-05
0.024432 2.056415e-05
0.024682 2.038217e-05
0.024932 2.019074e-05
0.025182 1.998995e-05
0.025432 1.977992e-05
0.025682 1.956077e-05
0.025932 1.933262e-05
0.026182 1.909558e-05
0.026432 1.884979e-05
0.026682 1.859538e-05
0.026932 1.833248e-05
0.027182 1.806122e-05
0.027432 1.778176e-05
0.027682 1.749423e-05
0.027932 1.719879e-05
0.028182 1.689558e-05
0.028432 1.658476e-05
0.028682 1.626649e-05
0.028932 1.594093e-05
0.029182 1.560824e-05
0.029432 1.526860e-05
0.029682 1.492216e-05
0.029932 1.456911e-05
0.030182 1.420961e-05
0.030432 1.384385e-05
0.030682 1.347201e-05
0.030932 1.309426e-05
0.031182 1.271080e-05
0.031432 1.232182e-05
0.031682 1.192749e-05
0.031932 1.152801e-05
0.032182 1.112358e-05
0.032432 1.071439e-05
0.032682 1.030063e-05
0.032932 9.882515e-06
0.033182 9.460233e-06
0.033432 9.033988e-06
0.033682 8.603984e-06
0.033932 8.170424e-06
0.034182 7.733516e-06
0.034432 7.293463e-06
0.034682 6.850476e-06
0.034932 6.404761e-06
0.035182 5.956529e-06
0.035432 5.505989e-06
0.035682 5.053352e-06
0.035932 4.598829e-06
0.036182 4.142631e-06
0.036432 3.684971e-06
0.036682 3.226060e-06
0.036932 2.766110e-06
0.037182 2.305334e-06
0.037432 1.843944e-06
0.037682 1.382152e-06
0.037932 9.201692e-07
0.038182 4.582073e-07
0.038432 -3.522920e-09
0.038682 -4.648111e-07
0.038932 -9.254476e-07
0.039182 -1.385223e-06
0.039432 -1.843931e-06
0.039682 -2.301362e-06
0.039932 -2.757311e-06
0.040182 -3.211573e-06
0.040432 -3.663944e-06
0.040682 -4.114221e-06
0.040932 -4.562204e-06
0.041182 -5.007692e-06
0.041432 -5.450487e-06
0.041682 -5.890394e-06
0.041932 -6.327216e-06
0.042182 -6.760762e-06
0.042432 -7.190839e-06
0.042682 -7.617259e-06
0.042932 -8.039836e-06
0.043182 -8.458383e-06
0.043432 -8.872718e-06
0.043682 -9.282662e-06
0.043932 -9.688035e-06
0.044182 -1.008866e-05
0.044432 -1.048437e-05
0.044682 -1.087499e-05
0.044932 -1.126035e-05
0.045182 -1.164030e-05
0.045432 -1.201465e-05
0.045682 -1.238327e-05
0.045932 -1.274598e-05
0.046182 -1.310264e-05
0.046432 -1.345310e-05
0.046682 -1.379720e-05
0.046932 -1.413481e-05
0.047182 -1.446579e-05
0.047432 -1.478999e-05
0.047682 -1.510729e-05
0.047932 -1.541755e-05
0.048182 -1.572065e-05
0.048432 -1.601645e-05
0.048682 -1.630485e-05
0.048932 -1.658572e-05
0.049182 -1.685896e-05
0.049432 -1.712445e-05
0.049682 -1.738208e-05
0.049932 -1.763176e-05
0.050182 -1.787340e-05
0.050432 -1.810688e-05
0.050682 -1.833213e-05
0.050932 -1.854906e-05
0.051182 -1.875758e-05
0.051432 -1.895763e-05
0.051682 -1.914911e-05
0.051932 -1.933197e-05
0.052182 -1.950614e-05
0.052432 -1.967155e-05
0.052682 -1.982816e-05
0.052932 -1.997589e-05
0.053182 -2.011471e-05
0.053432 -2.024457e-05
0.053682 -2.036543e-05
0.053932 -2.047725e-05
0.054182 -2.057999e-05
0.054432 -2.067363e-05
0.054682 -2.075815e-05
0.054932 -2.083352e-05
0.055182 -2.089973e-05
0.055432 -2.095676e-05
0.055682 -2.100461e-05
0.055932 -2.104327e-05
0.056182 -2.107275e-05
0.056432 -2.109305e-05
0.056682 -2.110417e-05
0.056932 -2.110613e-05
0.057182 -2.109895e-05
0.057432 -2.108265e-05
0.057682 -2.105725e-05
0.057932 -2.102279e-05
0.058182 -2.097929e-05
0.058432 -2.092679e-05
0.058682 -2.086533e-05
0.058932 -2.079497e-05
0.059182 -2.071575e-05
0.059432 -2.062771e-05
0.059682 -2.053093e-05
0.059932 -2.042545e-05
0.060182 -2.031135e-05
0.060432 -2.018869e-05
0.060682 -2.005755e-05
0.060932 -1.991800e-05
0.061182 -1.977011e-05
0.061432 -1.961398e-05
0.061682 -1.944969e-05
0.061932 -1.927733e-05
0.062182 -1.909699e-05
0.062432 -1.890877e-05
0.062682 -1.871278e-05
0.062932 -1.850910e-05
0.063182 -1.829786e-05
0.063432 -1.807916e-05
0.063682 -1.785311e-05
0.063932 -1.761983e-05
0.064182 -1.737944e-05
0.064432 -1.713207e-05
0.064682 -1.687783e-05
0.064932 -1.661686e-05
0.065182 -1.634928e-05
0.065432 -1.607523e-05
0.065682 -1.579485e-05
0.065932 -1.550828e-05
0.066182 -1.521565e-05
0.066432 -1.491710e-05
0.066682 -1.461280e-05
0.066932 -1.430288e-05
0.067182 -1.398749e-05
0.067432 -1.366679e-05
0.067682 -1.334093e-05
0.067932 -1.301008e-05
0.068182 -1.267438e-05
0.068432 -1.233400e-05
0.068682 -1.198909e-05
0.068932 -1.163984e-05
0.069182 -1.128639e-05
0.069432 -1.092893e-05
0.069682 -1.056761e-05
0.069932 -1.020261e-05
0.070182 -9.834092e-06
0.070432 -9.462239e-06
0.070682 -9.087221e-06
0.070932 -8.709214e-06
0.071182 -8.328392e-06
0.071432 -7.944934e-06
0.071682 -7.559016e-06
0.071932 -7.170817e-06
0.072182 -6.780516e-06
0.072432 -6.388292e-06
0.072682 -5.994327e-06
0.072932 -5.598799e-06
0.073182 -5.201891e-06
0.073432 -4.803784e-06
0.073682 -4.404658e-06
0.073932 -4.004696e-06
0.074182 -3.604078e-06
0.074432 -3.202987e-06
0.074682 -2.801602e-06
0.074932 -2.400106e-06
0.075182 -1.998679e-06
0.075432 -1.597500e-06
0.075682 -1.196751e-06
0.075932 -7.966100e-07
0.076182 -3.972556e-07
0.076432 1.134116e-09
0.076682 3.983822e-07
0.076932 7.943123e-07
0.077182 1.188749e-06
0.077432 1.581519e-06
0.077682 1.972448e-06
0.077932 2.361364e-06
0.078182 2.748097e-06
0.078432 3.132478e-06
0.078682 3.514338e-06
0.078932 3.893510e-06
0.079182 4.269831e-06
0.079432 4.643136e-06
0.079682 5.013264e-06
0.079932 5.380055e-06
0.080182 5.743351e-06
0.080432 6.102995e-06
0.080682 6.458833e-06
0.080932 6.810714e-06
0.081182 7.158486e-06
0.081432 7.502002e-06
0.081682 7.841116e-06
0.081932 8.175685e-06
0.082182 8.505566e-06
0.082432 8.830622e-06
0.082682 9.150716e-06
0.082932 9.465714e-06
0.083182 9.775484e-06
0.083432 1.007990e-05
0.083682 1.037883e-05
0.083932 1.067216e-05
0.084182 1.095976e-05
0.084432 1.124151e-05
0.084682 1.151731e-05
0.084932 1.178704e-05
0.085182 1.205059e-05
0.085432 1.230785e-05
0.085682 1.255872e-05
0.085932 1.280310e-05
0.086182 1.304089e-05
0.086432 1.327201e-05
0.086682 1.349635e-05
0.086932 1.371384e-05
0.087182 1.392438e-05
0.087432 1.412790e-05
0.087682 1.432432e-05
0.087932 1.451356e-05
0.088182 1.469556e-05
0.088432 1.487024e-05
0.088682 1.503755e-05
0.088932 1.519742e-05
0.089182 1.534979e-05
0.089432 1.549461e-05
0.089682 1.563184e-05
0.089932 1.576142e-05
0.090182 1.588330e-05
0.090432 1.599746e-05
0.090682 1.610386e-05
0.090932 1.620245e-05
0.091182 1.629322e-05
0.091432 1.637613e-05
0.091682 1.645117e-05
0.091932 1.651831e-05
0.092182 1.657755e-05
0.092432 1.662887e-05
0.092682 1.667226e-05
0.092932 1.670771e-05
0.093182 1.673524e-05
0.093432 1.675483e-05
0.093682 1.676651e-05
0.093932 1.677027e-05
0.094182 1.676613e-05
0.094432 1.675410e-05
0.094682 1.673422e-05
0.094932 1.670649e-05
0.095182 1.667095e-05
0.095432 1.662764e-05
0.095682 1.657658e-05
0.095932 1.651780e-05
0.096182 1.645136e-05
0.096432 1.637730e-05
0.096682 1.629566e-05
0.096932 1.620650e-05
0.097182 1.610986e-05
0.097432 1.600581e-05
0.097682 1.589441e-05
0.097932 1.577572e-05
0.098182 1.564981e-05
0.098432 1.551674e-05
0.098682 1.537659e-05
0.098932 1.522944e-05
0.099182 1.507537e-05
0.099432 1.491445e-05
0.099682 1.474677e-05
0.099932 1.457242e-05
0.100182 1.439149e-05
0.100432 1.420407e-05
0.100682 1.401027e-05
0.100932 1.381017e-05
0.101182 1.360387e-05
0.101432 1.339149e-05
0.101682 1.317313e-05
0.101932 1.294889e-05
0.102182 1.271889e-05
0.102432 1.248324e-05
0.102682 1.224206e-05
0.102932 1.199546e-05
0.103182 1.174356e-05
0.103432 1.148649e-05
0.103682 1.122438e-05
0.103932 1.095734e-05
0.104182 1.068550e-05
0.104432 1.040900e-05
0.104682 1.012796e-05
0.104932 9.842529e-06
0.105182 9.552830e-06
0.105432 9.259005e-06
0.105682 8.961190e-06
0.105932 8.659527e-06
0.106182 8.354156e-06
0.106432 8.045220e-06
0.106682 7.732864e-06
0.106932 7.417232e-06
0.107182 7.098472e-06
0.107432 6.776731e-06
0.107682 6.452157e-06
0.107932 6.124900e-06
0.108182 5.795111e-06
0.108432 5.462941e-06
0.108682 5.128542e-06
0.108932 4.792066e-06
0.109182 4.453668e-06
0.109432 4.113500e-06
0.109682 3.771719e-06
0.109932 3.428477e-06
0.110182 3.083932e-06
0.110432 2.738237e-06
0.110682 2.391549e-06
0.110932 2.044023e-06
0.111182 1.695816e-06
0.111432 1.347083e-06
0.111682 9.979799e-07
0.111932 6.486625e-07
0.112182 2.992863e-07
0.112432 -4.999372e-08
0.112682 -3.990227e-07
0.112932 -7.476461e-07
0.113182 -1.095710e-06
0.113432 -1.443062e-06
0.113682 -1.789547e-06
0.113932 -2.135016e-06
0.114182 -2.479315e-06
0.114432 -2.822295e-06
0.114682 -3.163806e-06
0.114932 -3.503699e-06
0.115182 -3.841827e-06
0.115432 -4.178043e-06
0.115682 -4.512201e-06
0.115932 -4.844158e-06
0.116182 -5.173770e-06
0.116432 -5.500895e-06
0.116682 -5.825394e-06
0.116932 -6.147126e-06
0.117182 -6.465956e-06
0.117432 -6.781747e-06
0.117682 -7.094365e-06
0.117932 -7.403676e-06
0.118182 -7.709552e-06
0.118432 -8.011861e-06
0.118682 -8.310478e-06
0.118932 -8.605276e-06
0.119182 -8.896133e-06
0.119432 -9.182927e-06
0.119682 -9.465537e-06
0.119932 -9.743848e-06
0.120182 -1.001774e-05
0.120432 -1.028711e-05
0.120682 -1.055184e-05
0.120932 -1.081182e-05
0.121182 -1.106695e-05
0.121432 -1.131712e-05
0.121682 -1.156223e-05
0.121932 -1.180218e-05
0.122182 -1.203688e-05
0.122432 -1.226623e-05
0.122682 -1.249014e-05
0.122932 -1.270852e-05
0.123182 -1.292128e-05
0.123432 -1.312835e-05
0.123682 -1.332963e-05
0.123932 -1.352506e-05
0.124182 -1.371455e-05
0.124432 -1.389803e-05
0.124682 -1.407544e-05
0.124932 -1.424670e-05
0.125182 -1.441176e-05
0.125432 -1.457054e-05
0.125682 -1.472300e-05
0.125932 -1.486907e-05
0.126182 -1.500870e-05
0.126432 -1.514185e-05
0.126682 -1.526846e-05
0.126932 -1.538850e-05
0.127182 -1.550191e-05
0.127432 -1.560867e-05
0.127682 -1.570874e-05
0.127932 -1.580209e-05
0.128182 -1.588868e-05
0.128432 -1.596849e-05
0.128682 -1.604151e-05
0.128932 -1.610770e-05
0.129182 -1.616706e-05
0.129432 -1.621956e-05
0.129682 -1.626520e-05
0.129932 -1.630398e-05
0.130182 -1.633588e-05
0.130432 -1.636090e-05
0.130682 -1.637905e-05
0.130932 -1.639033e-05
0.131182 -1.639475e-05
0.131432 -1.639232e-05
0.131682 -1.638305e-05
0.131932 -1.636696e-05
0.132182 -1.634407e-05
0.132432 -1.631439e-05
0.132682 -1.627797e-05
0.132932 -1.623482e-05
0.133182 -1.618497e-05
0.133432 -1.612847e-05
0.133682 -1.606534e-05
0.133932 -1.599563e-05
0.134182 -1.591938e-05
0.134432 -1.583663e-05
0.134682 -1.574743e-05
0.134932 -1.565184e-05
0.135182 -1.554991e-05
0.135432 -1.544169e-05
0.135682 -1.532724e-05
0.135932 -1.520663e-05
0.136182 -1.507992e-05
0.136432 -1.494717e-05
0.136682 -1.480846e-05
0.136932 -1.466385e-05
0.137182 -1.451343e-05
0.137432 -1.435726e-05
0.137682 -1.419542e-05
0.137932 -1.402801e-05
0.138182 -1.385510e-05
0.138432 -1.367677e-05
0.138682 -1.349312e-05
0.138932 -1.330424e-05
0.139182 -1.311021e-05
0.139432 -1.291113e-05
0.139682 -1.270711e-05
0.139932 -1.249823e-05
0.140182 -1.228460e-05
0.140432 -1.206632e-05
0.140682 -1.184349e-05
0.140932 -1.161623e-05
0.141182 -1.138463e-05
0.141432 -1.114881e-05
0.141682 -1.090888e-05
0.141932 -1.066495e-05
0.142182 -1.041714e-05
0.142432 -1.016555e-05
0.142682 -9.910316e-06
0.142932 -9.651546e-06
0.143182 -9.389363e-06
0.143432 -9.123887e-06
0.143682 -8.855240e-06
0.143932 -8.583547e-06
0.144182 -8.308931e-06
0.144432 -8.031518e-06
0.144682 -7.751434e-06
0.144932 -7.468808e-06
0.145182 -7.183767e-06
0.145432 -6.896440e-06
0.145682 -6.606958e-06
0.145932 -6.315450e-06
0.146182 -6.022049e-06
0.146432 -5.726886e-06
0.146682 -5.430093e-06
0.146932 -5.131803e-06
0.147182 -4.832150e-06
0.147432 -4.531266e-06
0.147682 -4.229286e-06
0.147932 -3.926343e-06
0.148182 -3.622572e-06
0.148432 -3.318108e-06
0.148682 -3.013084e-06
0.148932 -2.707634e-06
0.149182 -2.401894e-06
0.149432 -2.095997e-06
0.149682 -1.790076e-06
0.149932 -1.484267e-06
0.150182 -1.178702e-06
0.150432 -8.735143e-07
0.150682 -5.688362e-07
0.150932 -2.648002e-07
0.151182 3.846226e-08
0.151432 3.408201e-07
0.151682 6.421431e-07
0.151932 9.423014e-07
0.152182 1.241166e-06
0.152432 1.538609e-06
0.152682 1.834504e-06
0.152932 2.128723e-06
0.153182 2.421142e-06
0.153432 2.711636e-06
0.153682 3.000082e-06
0.153932 3.286358e-06
0.154182 3.570342e-06
0.154432 3.851916e-06
0.154682 4.130961e-06
0.154932 4.407360e-06
0.155182 4.680997e-06
0.155432 4.951758e-06
0.155682 5.219529e-06
0.155932 5.484201e-06
0.156182 5.745662e-06
0.156432 6.003806e-06
0.156682 6.258525e-06
0.156932 6.509714e-06
0.157182 6.757272e-06
0.157432 7.001096e-06
0.157682 7.241087e-06
0.157932 7.477147e-06
0.158182 7.709182e-06
0.158432 7.937096e-06
0.158682 8.160799e-06
0.158932 8.380201e-06
0.159182 8.595214e-06
0.159432 8.805752e-06
0.159682 9.011732e-06
0.159932 9.213073e-06
0.160182 9.409695e-06
0.160432 9.601522e-06
0.160682 9.788479e-06
0.160932 9.970493e-06
0.161182 1.014749e-05
0.161432 1.031941e-05
0.161682 1.048619e-05
0.161932 1.064775e-05
0.162182 1.080405e-05
0.162432 1.095501e-05
0.162682 1.110060e-05
0.162932 1.124074e-05
0.163182 1.137540e-05
0.163432 1.150451e-05
0.163682 1.162805e-05
0.163932 1.174596e-05
0.164182 1.185820e-05
0.164432 1.196473e-05
0.164682 1.206552e-05
0.164932 1.216054e-05
0.165182 1.224975e-05
0.165432 1.233313e-05
0.165682 1.241065e-05
0.165932 1.248228e-05
0.166182 1.254801e-05
0.166432 1.260783e-05
0.166682 1.266170e-05
0.166932 1.270963e-05
0.167182 1.275160e-05
0.167432 1.278760e-05
0.167682 1.281763e-05
0.167932 1.284170e-05
0.168182 1.285979e-05
0.168432 1.287191e-05
0.168682 1.287806e-05
0.168932 1.287827e-05
0.169182 1.287253e-05
0.169432 1.286086e-05
0.169682 1.284327e-05
0.169932 1.281979e-05
0.170182 1.279044e-05
0.170432 1.275523e-05
0.170682 1.271420e-05
0.170932 1.266737e-05
0.171182 1.261477e-05
0.171432 1.255644e-05
0.171682 1.249242e-05
0.171932 1.242274e-05
0.172182 1.234744e-05
0.172432 1.226656e-05
0.172682 1.218016e-05
0.172932 1.208827e-05
0.173182 1.199096e-05
0.173432 1.188826e-05
0.173682 1.178024e-05
0.173932 1.166695e-05
0.174182 1.154845e-05
0.174432 1.142480e-05
0.174682 1.129606e-05
0.174932 1.116231e-05
0.175182 1.102360e-05
0.175432 1.088001e-05
0.175682 1.073160e-05
0.175932 1.057846e-05
0.176182 1.042065e-05
0.176432 1.025825e-05
0.176682 1.009134e-05
0.176932 9.920009e-06
0.177182 9.744329e-06
0.177432 9.564388e-06
0.177682 9.380270e-06
0.177932 9.192064e-06
0.178182 8.999859e-06
0.178432 8.803745e-06
0.178682 8.603814e-06
0.178932 8.400161e-06
0.179182 8.192879e-06
0.179432 7.982066e-06
0.179682 7.767819e-06
0.179932 7.550237e-06
0.180182 7.329421e-06
0.180432 7.105472e-06
0.180682 6.878494e-06
0.180932 6.648588e-06
0.181182 6.415862e-06
0.181432 6.180420e-06
0.181682 5.942370e-06
0.181932 5.701819e-06
0.182182 5.458876e-06
0.182432 5.213650e-06
0.182682 4.966252e-06
0.182932 4.716793e-06
0.183182 4.465385e-06
0.183432 4.212140e-06
0.183682 3.957171e-06
0.183932 3.700591e-06
0.184182 3.442514e-06
0.184432 3.183055e-06
0.184682 2.922328e-06
0.184932 2.660449e-06
0.185182 2.397533e-06
0.185432 2.133696e-06
0.185682 1.869053e-06
0.185932 1.603719e-06
0.186182 1.337813e-06
0.186432 1.071448e-06
0.186682 8.047417e-07
0.186932 5.378095e-07
0.187182 2.707672e-07
0.187432 3.730519e-09
0.187682 -2.631852e-07
0.187932 -5.298647e-07
0.188182 -7.961933e-07
0.188432 -1.062056e-06