-0.138818 4.613262e-06
-0.138568 4.535446e-06
-0.138318 4.456011e-06
-0.138068 4.374991e-06
-0.137818 4.292420e-06
-0.137568 4.208332e-06
-0.137318 4.122763e-06
-0.137068 4.035749e-06
-0.136818 3.947325e-06
-0.136568 3.857529e-06
-0.136318 3.766398e-06
-0.136068 3.673969e-06
-0.135818 3.580282e-06
-0.135568 3.485373e-06
-0.135318 3.389283e-06
-0.135068 3.292052e-06
-0.134818 3.193717e-06
-0.134568 3.094321e-06
-0.134318 2.993904e-06
-0.134068 2.892506e-06
-0.133818 2.790168e-06
-0.133568 2.686933e-06
-0.133318 2.582841e-06
-0.133068 2.477936e-06
-0.132818 2.372259e-06
-0.132568 2.265853e-06
-0.132318 2.158761e-06
-0.132068 2.051026e-06
-0.131818 1.942691e-06
-0.131568 1.833799e-06
-0.131318 1.724393e-06
-0.131068 1.614519e-06
-0.130818 1.504218e-06
-0.130568 1.393536e-06
-0.130318 1.282515e-06
-0.130068 1.171201e-06
-0.129818 1.059637e-06
-0.129568 9.478666e-07
-0.129318 8.359346e-07
-0.129068 7.238850e-07
-0.128818 6.117617e-07
-0.128568 4.996089e-07
-0.128318 3.874704e-07
-0.128068 2.753903e-07
-0.127818 1.634121e-07
-0.127568 5.157982e-08
-0.127318 -6.006316e-08
-0.127068 -1.714734e-07
-0.126818 -2.826075e-07
-0.126568 -3.934225e-07
-0.126318 -5.038754e-07
-0.126068 -6.139235e-07
-0.125818 -7.235245e-07
-0.125568 -8.326359e-07
-0.125318 -9.412159e-07
-0.125068 -1.049223e-06
-0.124818 -1.156615e-06
-0.124568 -1.263352e-06
-0.124318 -1.369392e-06
-0.124068 -1.474695e-06
-0.123818 -1.579221e-06
-0.123568 -1.682930e-06
-0.123318 -1.785783e-06
-0.123068 -1.887741e-06
-0.122818 -1.988766e-06
-0.122568 -2.088818e-06
-0.122318 -2.187861e-06
-0.122068 -2.285858e-06
-0.121818 -2.382771e-06
-0.121568 -2.478564e-06
-0.121318 -2.573201e-06
-0.121068 -2.666648e-06
-0.120818 -2.758868e-06
-0.120568 -2.849829e-06
-0.120318 -2.939497e-06
-0.120068 -3.027837e-06
-0.119818 -3.114819e-06
-0.119568 -3.200409e-06
-0.119318 -3.284576e-06
-0.119068 -3.367290e-06
-0.118818 -3.448520e-06
-0.118568 -3.528237e-06
-0.118318 -3.606412e-06
-0.118068 -3.683016e-06
-0.117818 -3.758023e-06
-0.117568 -3.831404e-06
-0.117318 -3.903134e-06
-0.117068 -3.973188e-06
-0.116818 -4.041540e-06
-0.116568 -4.108165e-06
-0.116318 -4.173042e-06
-0.116068 -4.236146e-06
-0.115818 -4.297457e-06
-0.115568 -4.356952e-06
-0.115318 -4.414610e-06
-0.115068 -4.470413e-06
-0.114818 -4.524342e-06
-0.114568 -4.576377e-06
-0.114318 -4.626501e-06
-0.114068 -4.674698e-06
-0.113818 -4.720952e-06
-0.113568 -4.765247e-06
-0.113318 -4.807569e-06
-0.113068 -4.847904e-06
-0.112818 -4.886240e-06
-0.112568 -4.922564e-06
-0.112318 -4.956866e-06
-0.112068 -4.989135e-06
-0.111818 -5.019361e-06
-0.111568 -5.047535e-06
-0.111318 -5.073650e-06
-0.111068 -5.097699e-06
-0.110818 -5.119674e-06
-0.110568 -5.139571e-06
-0.110318 -5.157385e-06
-0.110068 -5.173112e-06
-0.109818 -5.186748e-06
-0.109568 -5.198292e-06
-0.109318 -5.207743e-06
-0.109068 -5.215098e-06
-0.108818 -5.220360e-06
-0.108568 -5.223528e-06
-0.108318 -5.224605e-06
-0.108068 -5.223593e-06
-0.107818 -5.220495e-06
-0.107568 -5.215317e-06
-0.107318 -5.208062e-06
-0.107068 -5.198737e-06
-0.106818 -5.187349e-06
-0.106568 -5.173905e-06
-0.106318 -5.158413e-06
-0.106068 -5.140882e-06
-0.105818 -5.121322e-06
-0.105568 -5.099744e-06
-0.105318 -5.076158e-06
-0.105068 -5.050578e-06
-0.104818 -5.023016e-06
-0.104568 -4.993485e-06
-0.104318 -4.962000e-06
-0.104068 -4.928576e-06
-0.103818 -4.893229e-06
-0.103568 -4.855975e-06
-0.103318 -4.816832e-06
-0.103068 -4.775818e-06
-0.102818 -4.732951e-06
-0.102568 -4.688251e-06
-0.102318 -4.641737e-06
-0.102068 -4.593432e-06
-0.101818 -4.543355e-06
-0.101568 -4.491529e-06
-0.101318 -4.437977e-06
-0.101068 -4.382721e-06
-0.100818 -4.325787e-06
-0.100568 -4.267199e-06
-0.100318 -4.206981e-06
-0.100068 -4.145160e-06
-0.099818 -4.081761e-06
-0.099568 -4.016813e-06
-0.099318 -3.950342e-06
-0.099068 -3.882376e-06
-0.098818 -3.812945e-06
-0.098568 -3.742076e-06
-0.098318 -3.669800e-06
-0.098068 -3.596147e-06
-0.097818 -3.521148e-06
-0.097568 -3.444833e-06
-0.097318 -3.367235e-06
-0.097068 -3.288384e-06
-0.096818 -3.208315e-06
-0.096568 -3.127058e-06
-0.096318 -3.044649e-06
-0.096068 -2.961120e-06
-0.095818 -2.876505e-06
-0.095568 -2.790840e-06
-0.095318 -2.704158e-06
-0.095068 -2.616495e-06
-0.094818 -2.527887e-06
-0.094568 -2.438368e-06
-0.094318 -2.347976e-06
-0.094068 -2.256747e-06
-0.093818 -2.164716e-06
-0.093568 -2.071922e-06
-0.093318 -1.978400e-06
-0.093068 -1.884190e-06
-0.092818 -1.789327e-06
-0.092568 -1.693850e-06
-0.092318 -1.597797e-06
-0.092068 -1.501206e-06
-0.091818 -1.404115e-06
-0.091568 -1.306563e-06
-0.091318 -1.208587e-06
-0.091068 -1.110227e-06
-0.090818 -1.011522e-06
-0.090568 -9.125095e-07
-0.090318 -8.132292e-07
-0.090068 -7.137197e-07
-0.089818 -6.140200e-07
-0.089568 -5.141691e-07
-0.089318 -4.142058e-07
-0.089068 -3.141691e-07
-0.088818 -2.140979e-07
-0.088568 -1.140309e-07
-0.088318 -1.400706e-08
-0.088068 8.593500e-08
-0.087818 1.857566e-07
-0.087568 2.854193e-07
-0.087318 3.848847e-07
-0.087068 4.841145e-07
-0.086818 5.830707e-07
-0.086568 6.817151e-07
-0.086318 7.800102e-07
-0.086068 8.779183e-07
-0.085818 9.754020e-07
-0.085568 1.072424e-06
-0.085318 1.168948e-06
-0.085068 1.264937e-06
-0.084818 1.360354e-06
-0.084568 1.455163e-06
-0.084318 1.549329e-06
-0.084068 1.642816e-06
-0.083818 1.735589e-06
-0.083568 1.827613e-06
-0.083318 1.918853e-06
-0.083068 2.009275e-06
-0.082818 2.098846e-06
-0.082568 2.187531e-06
-0.082318 2.275298e-06
-0.082068 2.362114e-06
-0.081818 2.447947e-06
-0.081568 2.532766e-06
-0.081318 2.616538e-06
-0.081068 2.699232e-06
-0.080818 2.780820e-06
-0.080568 2.861269e-06
-0.080318 2.940552e-06
-0.080068 3.018638e-06
-0.079818 3.095500e-06
-0.079568 3.171109e-06
-0.079318 3.245438e-06
-0.079068 3.318461e-06
-0.078818 3.390150e-06
-0.078568 3.460479e-06
-0.078318 3.529425e-06
-0.078068 3.596961e-06
-0.077818 3.663065e-06
-0.077568 3.727711e-06
-0.077318 3.790878e-06
-0.077068 3.852543e-06
-0.076818 3.912685e-06
-0.076568 3.971282e-06
-0.076318 4.028314e-06
-0.076068 4.083761e-06
-0.075818 4.137604e-06
-0.075568 4.189824e-06
-0.075318 4.240404e-06
-0.075068 4.289326e-06
-0.074818 4.336574e-06
-0.074568 4.382132e-06
-0.074318 4.425985e-06
-0.074068 4.468118e-06
-0.073818 4.508517e-06
-0.073568 4.547170e-06
-0.073318 4.584063e-06
-0.073068 4.619186e-06
-0.072818 4.652526e-06
-0.072568 4.684074e-06
-0.072318 4.713821e-06
-0.072068 4.741756e-06
-0.071818 4.767872e-06
-0.071568 4.792162e-06
-0.071318 4.814618e-06
-0.071068 4.835235e-06
-0.070818 4.854006e-06
-0.070568 4.870929e-06
-0.070318 4.885998e-06
-0.070068 4.899210e-06
-0.069818 4.910564e-06
-0.069568 4.920056e-06
-0.069318 4.927687e-06
-0.069068 4.933456e-06
-0.068818 4.937362e-06
-0.068568 4.939409e-06
-0.068318 4.939596e-06
-0.068068 4.937927e-06
-0.067818 4.934406e-06
-0.067568 4.929035e-06
-0.067318 4.921820e-06
-0.067068 4.912765e-06
-0.066818 4.901878e-06
-0.066568 4.889165e-06
-0.066318 4.874633e-06
-0.066068 4.858291e-06
-0.065818 4.840147e-06
-0.065568 4.820211e-06
-0.065318 4.798493e-06
-0.065068 4.775004e-06
-0.064818 4.749755e-06
-0.064568 4.722759e-06
-0.064318 4.694028e-06
-0.064068 4.663577e-06
-0.063818 4.631418e-06
-0.063568 4.597568e-06
-0.063318 4.562041e-06
-0.063068 4.524853e-06
-0.062818 4.486021e-06
-0.062568 4.445562e-06
-0.062318 4.403494e-06
-0.062068 4.359836e-06
-0.061818 4.314606e-06
-0.061568 4.267825e-06
-0.061318 4.219512e-06
-0.061068 4.169687e-06
-0.060818 4.118373e-06
-0.060568 4.065591e-06
-0.060318 4.011364e-06
-0.060068 3.955714e-06
-0.059818 3.898665e-06
-0.059568 3.840240e-06
-0.059318 3.780464e-06
-0.059068 3.719362e-06
-0.058818 3.656959e-06
-0.058568 3.593281e-06
-0.058318 3.528355e-06
-0.058068 3.462206e-06
-0.057818 3.394862e-06
-0.057568 3.326351e-06
-0.057318 3.256700e-06
-0.057068 3.185939e-06
-0.056818 3.114094e-06
-0.056568 3.041197e-06
-0.056318 2.967276e-06
-0.056068 2.892360e-06
-0.055818 2.816481e-06
-0.055568 2.739668e-06
-0.055318 2.661953e-06
-0.055068 2.583366e-06
-0.054818 2.503939e-06
-0.054568 2.423703e-06
-0.054318 2.342691e-06
-0.054068 2.260935e-06
-0.053818 2.178466e-06
-0.053568 2.095318e-06
-0.053318 2.011524e-06
-0.053068 1.927116e-06
-0.052818 1.842128e-06
-0.052568 1.756592e-06
-0.052318 1.670544e-06
-0.052068 1.584016e-06
-0.051818 1.497042e-06
-0.051568 1.409657e-06
-0.051318 1.321893e-06
-0.051068 1.233786e-06
-0.050818 1.145370e-06
-0.050568 1.056679e-06
-0.050318 9.677475e-07
-0.050068 8.786096e-07
-0.049818 7.892999e-07
-0.049568 6.998529e-07
-0.049318 6.103031e-07
-0.049068 5.206848e-07
-0.048818 4.310326e-07
-0.048568 3.413808e-07
-0.048318 2.517638e-07
-0.048068 1.622158e-07
-0.047818 7.277091e-08
-0.047568 -1.653663e-08
-0.047318 -1.056729e-07
-0.047068 -1.946039e-07
-0.046818 -2.832960e-07
-0.046568 -3.717156e-07
-0.046318 -4.598292e-07
-0.046068 -5.476034e-07
-0.045818 -6.350052e-07
-0.045568 -7.220017e-07
-0.045318 -8.085602e-07
-0.045068 -8.946481e-07
-0.044818 -9.802331e-07
-0.044568 -1.065283e-06
-0.044318 -1.149767e-06
-0.044068 -1.233652e-06
-0.043818 -1.316908e-06
-0.043568 -1.399504e-06
-0.043318 -1.481408e-06
-0.043068 -1.562592e-06
-0.042818 -1.643023e-06
-0.042568 -1.722674e-06
-0.042318 -1.801515e-06
-0.042068 -1.879515e-06
-0.041818 -1.956648e-06
-0.041568 -2.032885e-06
-0.041318 -2.108197e-06
-0.041068 -2.182557e-06
-0.040818 -2.255939e-06
-0.040568 -2.328315e-06
-0.040318 -2.399660e-06
-0.040068 -2.469947e-06
-0.039818 -2.539152e-06
-0.039568 -2.607248e-06
-0.039318 -2.674213e-06
-0.039068 -2.740021e-06
-0.038818 -2.804649e-06
-0.038568 -2.868075e-06
-0.038318 -2.930276e-06
-0.038068 -2.991229e-06
-0.037818 -3.050913e-06
-0.037568 -3.109308e-06
-0.037318 -3.166393e-06
-0.037068 -3.222147e-06
-0.036818 -3.276551e-06
-0.036568 -3.329588e-06
-0.036318 -3.381237e-06
-0.036068 -3.431482e-06
-0.035818 -3.480305e-06
-0.035568 -3.527690e-06
-0.035318 -3.573620e-06
-0.035068 -3.618081e-06
-0.034818 -3.661056e-06
-0.034568 -3.702533e-06
-0.034318 -3.742497e-06
-0.034068 -3.780935e-06
-0.033818 -3.817834e-06
-0.033568 -3.853184e-06
-0.033318 -3.886972e-06
-0.033068 -3.919187e-06
-0.032818 -3.949820e-06
-0.032568 -3.978862e-06
-0.032318 -4.006303e-06
-0.032068 -4.032135e-06
-0.031818 -4.056351e-06
-0.031568 -4.078943e-06
-0.031318 -4.099906e-06
-0.031068 -4.119234e-06
-0.030818 -4.136921e-06
-0.030568 -4.152964e-06
-0.030318 -4.167358e-06
-0.030068 -4.180100e-06
-0.029818 -4.191189e-06
-0.029568 -4.200621e-06
-0.029318 -4.208396e-06
-0.029068 -4.214513e-06
-0.028818 -4.218972e-06
-0.028568 -4.221773e-06
-0.028318 -4.222919e-06
-0.028068 -4.222411e-06
-0.027818 -4.220252e-06
-0.027568 -4.216444e-06
-0.027318 -4.210991e-06
-0.027068 -4.203898e-06
-0.026818 -4.195171e-06
-0.026568 -4.184814e-06
-0.026318 -4.172833e-06
-0.026068 -4.159237e-06
-0.025818 -4.144032e-06
-0.025568 -4.127225e-06
-0.025318 -4.108827e-06
-0.025068 -4.088846e-06
-0.024818 -4.067293e-06
-0.024568 -4.044176e-06
-0.024318 -4.019508e-06
-0.024068 -3.993301e-06
-0.023818 -3.965566e-06
-0.023568 -3.936315e-06
-0.023318 -3.905564e-06
-0.023068 -3.873324e-06
-0.022818 -3.839611e-06
-0.022568 -3.804439e-06
-0.022318 -3.767825e-06
-0.022068 -3.729783e-06
-0.021818 -3.690331e-06
-0.021568 -3.649486e-06
-0.021318 -3.607264e-06
-0.021068 -3.563685e-06
-0.020818 -3.518767e-06
-0.020568 -3.472527e-06
-0.020318 -3.424987e-06
-0.020068 -3.376167e-06
-0.019818 -3.326085e-06
-0.019568 -3.274764e-06
-0.019318 -3.222224e-06
-0.019068 -3.168488e-06
-0.018818 -3.113577e-06
-0.018568 -3.057515e-06
-0.018318 -3.000323e-06
-0.018068 -2.942026e-06
-0.017818 -2.882647e-06
-0.017568 -2.822210e-06
-0.017318 -2.760739e-06
-0.017068 -2.698261e-06
-0.016818 -2.634799e-06
-0.016568 -2.570380e-06
-0.016318 -2.505029e-06
-0.016068 -2.438772e-06
-0.015818 -2.371636e-06
-0.015568 -2.303648e-06
-0.015318 -2.234835e-06
-0.015068 -2.165223e-06
-0.014818 -2.094842e-06
-0.014568 -2.023718e-06
-0.014318 -1.951879e-06
-0.014068 -1.879355e-06
-0.013818 -1.806173e-06
-0.013568 -1.732363e-06
-0.013318 -1.657953e-06
-0.013068 -1.582972e-06
-0.012818 -1.507450e-06
-0.012568 -1.431416e-06
-0.012318 -1.354900e-06
-0.012068 -1.277931e-06
-0.011818 -1.200540e-06
-0.011568 -1.122757e-06
-0.011318 -1.044611e-06
-0.011068 -9.661329e-07
-0.010818 -8.873531e-07
-0.010568 -8.083018e-07
-0.010318 -7.290095e-07
-0.010068 -6.495066e-07
-0.009818 -5.698236e-07
-0.009568 -4.899911e-07
-0.009318 -4.100396e-07
-0.009068 -3.299997e-07
-0.008818 -2.499019e-07
-0.008568 -1.697766e-07
-0.008318 -8.965451e-08
-0.008068 -9.565905e-09
-0.007818 7.045880e-08
-0.007568 1.503893e-07
-0.007318 2.301953e-07
-0.007068 3.098468e-07
-0.006818 3.893137e-07
-0.006568 4.685660e-07
-0.006318 5.475740e-07
-0.006068 6.263080e-07
-0.005818 7.047385e-07
-0.005568 7.828362e-07
-0.005318 8.605718e-07
-0.005068 9.379163e-07
-0.004818 1.014841e-06
-0.004568 1.091317e-06
-0.004318 1.167317e-06
-0.004068 1.242811e-06
-0.003818 1.317772e-06
-0.003568 1.392173e-06
-0.003318 1.465985e-06
-0.003068 1.539182e-06
-0.002818 1.611737e-06
-0.002568 1.683622e-06
-0.002318 1.754813e-06
-0.002068 1.825282e-06
-0.001818 1.895004e-06
-0.001568 1.963954e-06
-0.001318 2.032106e-06
-0.001068 2.099436e-06
-0.000818 2.165920e-06
-0.000568 2.231532e-06
-0.000318 2.296251e-06
-0.000068 2.360051e-06
0.000182 2.422911e-06
0.000432 2.484808e-06
0.000682 2.545720e-06
0.000932 2.605625e-06
0.001182 2.664502e-06
0.001432 2.722329e-06
0.001682 2.779087e-06
0.001932 2.834755e-06
0.002182 2.889314e-06
0.002432 2.942744e-06
0.002682 2.995028e-06
0.002932 3.046146e-06
0.003182 3.096081e-06
0.003432 3.144816e-06
0.003682 3.192334e-06
0.003932 3.238618e-06
0.004182 3.283653e-06
0.004432 3.327424e-06
0.004682 3.369915e-06
0.004932 3.411112e-06
0.005182 3.451002e-06
0.005432 3.489571e-06
0.005682 3.526807e-06
0.005932 3.562696e-06
0.006182 3.597228e-06
0.006432 3.630391e-06
0.006682 3.662175e-06
0.006932 3.692569e-06
0.007182 3.721564e-06
0.007432 3.749151e-06
0.007682 3.775321e-06
0.007932 3.800066e-06
0.008182 3.823379e-06
0.008432 3.845254e-06
0.008682 3.865683e-06
0.008932 3.884661e-06
0.009182 3.902184e-06
0.009432 3.918245e-06
0.009682 3.932842e-06
0.009932 3.945970e-06
0.010182 3.957628e-06
0.010432 3.967811e-06
0.010682 3.976519e-06
0.010932 3.983751e-06
0.011182 3.989505e-06
0.011432 3.993782e-06
0.011682 3.996581e-06
0.011932 3.997905e-06
0.012182 3.997753e-06
0.012432 3.996130e-06
0.012682 3.993036e-06
0.012932 3.988476e-06
0.013182 3.982453e-06
0.013432 3.974971e-06
0.013682 3.966036e-06
0.013932 3.955652e-06
0.014182 3.943825e-06
0.014432 3.930563e-06
0.014682 3.915871e-06
0.014932 3.899758e-06
0.015182 3.882231e-06
0.015432 3.863300e-06
0.015682 3.842972e-06
0.015932 3.821259e-06
0.016182 3.798169e-06
0.016432 3.773713e-06
0.016682 3.747904e-06
0.016932 3.720751e-06
0.017182 3.692268e-06
0.017432 3.662466e-06
0.017682 3.631360e-06
0.017932 3.598962e-06
0.018182 3.565286e-06
0.018432 3.530347e-06
0.018682 3.494161e-06
0.018932 3.456741e-06
0.019182 3.418105e-06
0.019432 3.378267e-06
0.019682 3.337246e-06
0.019932 3.295058e-06
0.020182 3.251720e-06
0.020432 3.207251e-06
0.020682 3.161669e-06
0.020932 3.114992e-06
0.021182 3.067240e-06
0.021432 3.018433e-06
0.021682 2.968589e-06
0.021932 2.917729e-06
0.022182 2.865875e-06
0.022432 2.813046e-06
0.022682 2.759264e-06
0.022932 2.704550e-06
0.023182 2.648928e-06
0.023432 2.592417e-06
0.023682 2.535043e-06
0.023932 2.476826e-06
0.024182 2.417790e-06
0.024432 2.357959e-06
0.024682 2.297356e-06
0.024932 2.236005e-06
0.025182 2.173930e-06
0.025432 2.111156e-06
0.025682 2.047707e-06
0.025932 1.983607e-06
0.026182 1.918884e-06
0.026432 1.853560e-06
0.026682 1.787662e-06
0.026932 1.721215e-06
0.027182 1.654246e-06
0.027432 1.586779e-06
0.027682 1.518842e-06
0.027932 1.450460e-06
0.028182 1.381660e-06
0.028432 1.312468e-06
0.028682 1.242910e-06
0.028932 1.173015e-06
0.029182 1.102807e-06
0.029432 1.032315e-06
0.029682 9.615645e-07
0.029932 8.905831e-07
0.030182 8.193978e-07
0.030432 7.480357e-07
0.030682 6.765237e-07
0.030932 6.048891e-07
0.031182 5.331589e-07
0.031432 4.613603e-07
0.031682 3.895204e-07
0.031932 3.176662e-07
0.032182 2.458249e-07
0.032432 1.740233e-07
0.032682 1.022885e-07
0.032932 3.064741e-08
0.033182 -4.087325e-08
0.033432 -1.122467e-07
0.033682 -1.834464e-07
0.033932 -2.544456e-07
0.034182 -3.252181e-07
0.034432 -3.957375e-07
0.034682 -4.659776e-07
0.034932 -5.359125e-07
0.035182 -6.055162e-07
0.035432 -6.747631e-07
0.035682 -7.436276e-07
0.035932 -8.120844e-07
0.036182 -8.801082e-07
0.036432 -9.476742e-07
0.036682 -1.014758e-06
0.036932 -1.081334e-06
0.037182 -1.147378e-06
0.037432 -1.212867e-06
0.037682 -1.277777e-06
0.037932 -1.342084e-06
0.038182 -1.405764e-06
0.038432 -1.468795e-06
0.038682 -1.531154e-06
0.038932 -1.592818e-06
0.039182 -1.653765e-06
0.039432 -1.713974e-06
0.039682 -1.773422e-06
0.039932 -1.832088e-06
0.040182 -1.889952e-06
0.040432 -1.946993e-06
0.040682 -2.003190e-06
0.040932 -2.058524e-06
0.041182 -2.112974e-06
0.041432 -2.166523e-06
0.041682 -2.219150e-06
0.041932 -2.270838e-06
0.042182 -2.321568e-06
0.042432 -2.371323e-06
0.042682 -2.420085e-06
0.042932 -2.467837e-06
0.043182 -2.514563e-06
0.043432 -2.560247e-06
0.043682 -2.604873e-06
0.043932 -2.648426e-06
0.044182 -2.690890e-06
0.044432 -2.732252e-06
0.044682 -2.772497e-06
0.044932 -2.811613e-06
0.045182 -2.849585e-06
0.045432 -2.886401e-06
0.045682 -2.922049e-06
0.045932 -2.956517e-06
0.046182 -2.989794e-06
0.046432 -3.021869e-06
0.046682 -3.052732e-06
0.046932 -3.082372e-06
0.047182 -3.110781e-06
0.047432 -3.137949e-06
0.047682 -3.163868e-06
0.047932 -3.188530e-06
0.048182 -3.211927e-06
0.048432 -3.234053e-06
0.048682 -3.254901e-06
0.048932 -3.274464e-06
0.049182 -3.292738e-06
0.049432 -3.309717e-06
0.049682 -3.325397e-06
0.049932 -3.339773e-06
0.050182 -3.352842e-06
0.050432 -3.364602e-06
0.050682 -3.375048e-06
0.050932 -3.384180e-06
0.051182 -3.391995e-06
0.051432 -3.398493e-06
0.051682 -3.403673e-06
0.051932 -3.407534e-06
0.052182 -3.410078e-06
0.052432 -3.411305e-06
0.052682 -3.411216e-06
0.052932 -3.409814e-06
0.053182 -3.407100e-06
0.053432 -3.403078e-06
0.053682 -3.397750e-06
0.053932 -3.391121e-06
0.054182 -3.383195e-06
0.054432 -3.373977e-06
0.054682 -3.363472e-06
0.054932 -3.351685e-06
0.055182 -3.338624e-06
0.055432 -3.324294e-06
0.055682 -3.308702e-06
0.055932 -3.291857e-06
0.056182 -3.273766e-06
0.056432 -3.254438e-06
0.056682 -3.233882e-06
0.056932 -3.212107e-06
0.057182 -3.189123e-06
0.057432 -3.164940e-06
0.057682 -3.139569e-06
0.057932 -3.113022e-06
0.058182 -3.085309e-06
0.058432 -3.056444e-06
0.058682 -3.026437e-06
0.058932 -2.995302e-06
0.059182 -2.963053e-06
0.059432 -2.929703e-06
0.059682 -2.895265e-06
0.059932 -2.859755e-06
0.060182 -2.823187e-06
0.060432 -2.785576e-06
0.060682 -2.746938e-06
0.060932 -2.707289e-06
0.061182 -2.666644e-06
0.061432 -2.625022e-06
0.061682 -2.582437e-06
0.061932 -2.538909e-06
0.062182 -2.494453e-06
0.062432 -2.449090e-06
0.062682 -2.402835e-06
0.062932 -2.355709e-06
0.063182 -2.307730e-06
0.063432 -2.258916e-06
0.063682 -2.209289e-06
0.063932 -2.158866e-06
0.064182 -2.107669e-06
0.064432 -2.055717e-06
0.064682 -2.003031e-06
0.064932 -1.949632e-06
0.065182 -1.895541e-06
0.065432 -1.840778e-06
0.065682 -1.785366e-06
0.065932 -1.729325e-06
0.066182 -1.672678e-06
0.066432 -1.615447e-06
0.066682 -1.557654e-06
0.066932 -1.499322e-06
0.067182 -1.440472e-06
0.067432 -1.381128e-06
0.067682 -1.321313e-06
0.067932 -1.261050e-06
0.068182 -1.200361e-06
0.068432 -1.139270e-06
0.068682 -1.077801e-06
0.068932 -1.015977e-06
0.069182 -9.538218e-07
0.069432 -8.913588e-07
0.069682 -8.286119e-07
0.069932 -7.656050e-07
0.070182 -7.023621e-07
0.070432 -6.389071e-07
0.070682 -5.752640e-07
0.070932 -5.114570e-07
0.071182 -4.475101e-07
0.071432 -3.834473e-07
0.071682 -3.192930e-07
0.071932 -2.550710e-07
0.072182 -1.908056e-07
0.072432 -1.265209e-07
0.072682 -6.224089e-08
0.072932 2.010382e-09
0.073182 6.620893e-08
0.073432 1.303308e-07
0.073682 1.943522e-07
0.073932 2.582492e-07
0.074182 3.219982e-07
0.074432 3.855755e-07
0.074682 4.489577e-07
0.074932 5.121212e-07
0.075182 5.750427e-07
0.075432 6.376991e-07
0.075682 7.000674e-07
0.075932 7.621246e-07
0.076182 8.238479e-07
0.076432 8.852147e-07
0.076682 9.462026e-07
0.076932 1.006789e-06
0.077182 1.066953e-06
0.077432 1.126671e-06
0.077682 1.185922e-06
0.077932 1.244685e-06
0.078182 1.302938e-06
0.078432 1.360661e-06
0.078682 1.417832e-06
0.078932 1.474431e-06
0.079182 1.530437e-06
0.079432 1.585830e-06
0.079682 1.640591e-06
0.079932 1.694700e-06
0.080182 1.748137e-06
0.080432 1.800884e-06
0.080682 1.852922e-06
0.080932 1.904232e-06
0.081182 1.954796e-06
0.081432 2.004596e-06
0.081682 2.053615e-06
0.081932 2.101836e-06
0.082182 2.149241e-06
0.082432 2.195813e-06
0.082682 2.241538e-06
0.082932 2.286398e-06
0.083182 2.330379e-06
0.083432 2.373464e-06
0.083682 2.415640e-06
0.083932 2.456891e-06
0.084182 2.497204e-06
0.084432 2.536564e-06
0.084682 2.574958e-06
0.084932 2.612374e-06
0.085182 2.648798e-06
0.085432 2.684219e-06
0.085682 2.718624e-06
0.085932 2.752002e-06
0.086182 2.784343e-06
0.086432 2.815634e-06
0.086682 2.845866e-06
0.086932 2.875030e-06
0.087182 2.903116e-06
0.087432 2.930114e-06
0.087682 2.956016e-06
0.087932 2.980814e-06
0.088182 3.004501e-06
0.088432 3.027068e-06
0.088682 3.048509e-06
0.088932 3.068818e-06
0.089182 3.087988e-06
0.089432 3.106014e-06
0.089682 3.122891e-06
0.089932 3.138613e-06
0.090182 3.153177e-06
0.090432 3.166579e-06
0.090682 3.178815e-06
0.090932 3.189882e-06
0.091182 3.199778e-06
0.091432 3.208500e-06
0.091682 3.216048e-06
0.091932 3.222419e-06
0.092182 3.227613e-06
0.092432 3.231629e-06
0.092682 3.234468e-06
0.092932 3.236130e-06
0.093182 3.236617e-06
0.093432 3.235929e-06
0.093682 3.234068e-06
0.093932 3.231036e-06
0.094182 3.226837e-06
0.094432 3.221474e-06
0.094682 3.214949e-06
0.094932 3.207267e-06
0.095182 3.198433e-06
0.095432 3.188451e-06
0.095682 3.177326e-06
0.095932 3.165064e-06
0.096182 3.151672e-06
0.096432 3.137155e-06
0.096682 3.121521e-06
0.096932 3.104777e-06
0.097182 3.086930e-06
0.097432 3.067989e-06
0.097682 3.047962e-06
0.097932 3.026859e-06
0.098182 3.004687e-06
0.098432 2.981458e-06
0.098682 2.957182e-06
0.098932 2.931867e-06
0.099182 2.905526e-06
0.099432 2.878170e-06
0.099682 2.849810e-06
0.099932 2.820458e-06
0.100182 2.790126e-06
0.100432 2.758826e-06
0.100682 2.726573e-06
0.100932 2.693378e-06
0.101182 2.659256e-06
0.101432 2.624221e-06
0.101682 2.588287e-06
0.101932 2.551467e-06
0.102182 2.513778e-06
0.102432 2.475235e-06
0.102682 2.435852e-06
0.102932 2.395645e-06
0.103182 2.354632e-06
0.103432 2.312827e-06
0.103682 2.270248e-06
0.103932 2.226911e-06
0.104182 2.182834e-06
0.104432 2.138034e-06
0.104682 2.092528e-06
0.104932 2.046334e-06
0.105182 1.999471e-06
0.105432 1.951957e-06
0.105682 1.903810e-06
0.105932 1.855049e-06
0.106182 1.805692e-06
0.106432 1.755760e-06
0.106682 1.705271e-06
0.106932 1.654245e-06
0.107182 1.602701e-06
0.107432 1.550660e-06
0.107682 1.498141e-06
0.107932 1.445164e-06
0.108182 1.391750e-06
0.108432 1.337920e-06
0.108682 1.283692e-06
0.108932 1.229090e-06
0.109182 1.174132e-06
0.109432 1.118840e-06
0.109682 1.063236e-06
0.109932 1.007339e-06
0.110182 9.511713e-07
0.110432 8.947540e-07
0.110682 8.381084e-07
0.110932 7.812557e-07
0.111182 7.242172e-07
0.111432 6.670145e-07
0.111682 6.096690e-07
0.111932 5.522021e-07
0.112182 4.946353e-07
0.112432 4.369900e-07
0.112682 3.792879e-07
0.112932 3.215503e-07
0.113182 2.637988e-07
0.113432 2.060547e-07
0.113682 1.483395e-07
0.113932 9.067459e-08
0.114182 3.308120e-08
0.114432 -2.441936e-08
0.114682 -8.180590e-08
0.114932 -1.390573e-07
0.115182 -1.961525e-07
0.115432 -2.530705e-07
0.115682 -3.097905e-07
0.115932 -3.662917e-07
0.116182 -4.225535e-07
0.116432 -4.785553e-07
0.116682 -5.342767e-07
0.116932 -5.896974e-07
0.117182 -6.447972e-07
0.117432 -6.995563e-07
0.117682 -7.539547e-07
0.117932 -8.079728e-07
0.118182 -8.615911e-07
0.118432 -9.147901e-07
0.118682 -9.675508e-07
0.118932 -1.019854e-06
0.119182 -1.071682e-06
0.119432 -1.123014e-06
0.119682 -1.173834e-06
0.119932 -1.224122e-06
0.120182 -1.273862e-06
0.120432 -1.323035e-06
0.120682 -1.371623e-06
0.120932 -1.419610e-06
0.121182 -1.466979e-06
0.121432 -1.513712e-06
0.121682 -1.559794e-06
0.121932 -1.605208e-06
0.122182 -1.649939e-06
0.122432 -1.693970e-06
0.122682 -1.737286e-06
0.122932 -1.779873e-06
0.123182 -1.821714e-06
0.123432 -1.862797e-06
0.123682 -1.903107e-06
0.123932 -1.942629e-06
0.124182 -1.981350e-06
0.124432 -2.019257e-06
0.124682 -2.056338e-06
0.124932 -2.092578e-06
0.125182 -2.127967e-06
0.125432 -2.162492e-06
0.125682 -2.196141e-06
0.125932 -2.228904e-06
0.126182 -2.260769e-06
0.126432 -2.291725e-06
0.126682 -2.321763e-06
0.126932 -2.350873e-06
0.127182 -2.379044e-06
0.127432 -2.406268e-06
0.127682 -2.432537e-06
0.127932 -2.457841e-06
0.128182 -2.482172e-06
0.128432 -2.505523e-06
0.128682 -2.527887e-06
0.128932 -2.549256e-06
0.129182 -2.569624e-06
0.129432 -2.588985e-06
0.129682 -2.607333e-06
0.129932 -2.624662e-06
0.130182 -2.640968e-06
0.130432 -2.656246e-06
0.130682 -2.670491e-06
0.130932 -2.683699e-06
0.131182 -2.695868e-06
0.131432 -2.706994e-06
0.131682 -2.717074e-06
0.131932 -2.726106e-06
0.132182 -2.734089e-06
0.132432 -2.741019e-06
0.132682 -2.746897e-06
0.132932 -2.751722e-06
0.133182 -2.755492e-06
0.133432 -2.758209e-06
0.133682 -2.759873e-06
0.133932 -2.760484e-06
0.134182 -2.760044e-06
0.134432 -2.758553e-06
0.134682 -2.756015e-06
0.134932 -2.752432e-06
0.135182 -2.747805e-06
0.135432 -2.742139e-06
0.135682 -2.735436e-06
0.135932 -2.727702e-06
0.136182 -2.718939e-06
0.136432 -2.709153e-06
0.136682 -2.698348e-06
0.136932 -2.686530e-06
0.137182 -2.673704e-06
0.137432 -2.659878e-06
0.137682 -2.645056e-06
0.137932 -2.629246e-06
0.138182 -2.612456e-06
0.138432 -2.594692e-06
0.138682 -2.575963e-06
0.138932 -2.556276e-06
0.139182 -2.535640e-06
0.139432 -2.514065e-06
0.139682 -2.491559e-06
0.139932 -2.468132e-06
0.140182 -2.443794e-06
0.140432 -2.418555e-06
0.140682 -2.392426e-06
0.140932 -2.365417e-06
0.141182 -2.337540e-06
0.141432 -2.308806e-06
0.141682 -2.279226e-06
0.141932 -2.248814e-06
0.142182 -2.217581e-06
0.142432 -2.185540e-06
0.142682 -2.152703e-06
0.142932 -2.119085e-06
0.143182 -2.084698e-06
0.143432 -2.049556e-06
0.143682 -2.013673e-06
0.143932 -1.977064e-06
0.144182 -1.939743e-06
0.144432 -1.901725e-06
0.144682 -1.863024e-06
0.144932 -1.823657e-06
0.145182 -1.783637e-06
0.145432 -1.742982e-06
0.145682 -1.701706e-06
0.145932 -1.659826e-06
0.146182 -1.617359e-06
0.146432 -1.574320e-06
0.146682 -1.530727e-06
0.146932 -1.486596e-06
0.147182 -1.441944e-06
0.147432 -1.396788e-06
0.147682 -1.351146e-06
0.147932 -1.305036e-06
0.148182 -1.258474e-06
0.148432 -1.211479e-06
0.148682 -1.164069e-06
0.148932 -1.116261e-06
0.149182 -1.068075e-06
0.149432 -1.019528e-06
0.149682 -9.706378e-07
0.149932 -9.214242e-07
0.150182 -8.719054e-07
0.150432 -8.221000e-07
0.150682 -7.720268e-07
0.150932 -7.217047e-07
0.151182 -6.711526e-07
0.151432 -6.203895e-07
0.151682 -5.694344e-07
0.151932 -5.183063e-07
0.152182 -4.670244e-07
0.152432 -4.156078e-07
0.152682 -3.640757e-07
0.152932 -3.124473e-07
0.153182 -2.607418e-07
0.153432 -2.089783e-07
0.153682 -1.571760e-07
0.153932 -1.053542e-07
0.154182 -5.353191e-08
0.154432 -1.728386e-09
0.154682 5.003731e-08
0.154932 1.017461e-07
0.155182 1.533790e-07
0.155432 2.049171e-07
0.155682 2.563414e-07
0.155932 3.076330e-07
0.156182 3.587733e-07
0.156432 4.097436e-07
0.156682 4.605252e-07
0.156932 5.110997e-07
0.157182 5.614486e-07
0.157432 6.115538e-07
0.157682 6.613969e-07
0.157932 7.109600e-07
0.158182 7.602251e-07
0.158432 8.091744e-07
0.158682 8.577904e-07
0.158932 9.060553e-07
0.159182 9.539521e-07
0.159432 1.001463e-06
0.159682 1.048572e-06
0.159932 1.095261e-06
0.160182 1.141515e-06
0.160432 1.187316e-06
0.160682 1.232647e-06
0.160932 1.277494e-06
0.161182 1.321841e-06
0.161432 1.365670e-06
0.161682 1.408968e-06
0.161932 1.451718e-06
0.162182 1.493905e-06
0.162432 1.535516e-06
0.162682 1.576534e-06
0.162932 1.616947e-06
0.163182 1.656739e-06
0.163432 1.695896e-06
0.163682 1.734406e-06
0.163932 1.772255e-06
0.164182 1.809430e-06
0.164432 1.845917e-06
0.164682 1.881705e-06
0.164932 1.916780e-06
0.165182 1.951132e-06
0.165432 1.984748e-06
0.165682 2.017617e-06
0.165932 2.049727e-06
0.166182 2.081069e-06
0.166432 2.111630e-06
0.166682 2.141402e-06
0.166932 2.170374e-06
0.167182 2.198536e-06
0.167432 2.225879e-06
0.167682 2.252394e-06
0.167932 2.278072e-06
0.168182 2.302905e-06
0.168432 2.326886e-06
0.168682 2.350005e-06
0.168932 2.372256e-06
0.169182 2.393632e-06
0.169432 2.414126e-06
0.169682 2.433731e-06
0.169932 2.452441e-06
0.170182 2.470251e-06
0.170432 2.487155e-06
0.170682 2.503149e-06
0.170932 2.518227e-06
0.171182 2.532385e-06
0.171432 2.545619e-06
0.171682 2.557925e-06
0.171932 2.569300e-06
0.172182 2.579742e-06
0.172432 2.589246e-06
0.172682 2.597812e-06
0.172932 2.605436e-06
0.173182 2.612119e-06
0.173432 2.617857e-06
0.173682 2.622651e-06
0.173932 2.626499e-06
0.174182 2.629402e-06
0.174432 2.631359e-06
0.174682 2.632372e-06
0.174932 2.632441e-06
0.175182 2.631566e-06
0.175432 2.629751e-06
0.175682 2.626996e-06
0.175932 2.623303e-06
0.176182 2.618676e-06
0.176432 2.613118e-06
0.176682 2.606630e-06
0.176932 2.599218e-06
0.177182 2.590884e-06
0.177432 2.581634e-06
0.177682 2.571471e-06
0.177932 2.560401e-06
0.178182 2.548428e-06
0.178432 2.535559e-06
0.178682 2.521799e-06
0.178932 2.507155e-06
0.179182 2.491632e-06
0.179432 2.475239e-06
0.179682 2.457981e-06
0.179932 2.439866e-06
0.180182 2.420902e-06
0.180432 2.401098e-06
0.180682 2.380461e-06
0.180932 2.359000e-06
0.181182 2.336724e-06
0.181432 2.313642e-06
0.181682 2.289764e-06
0.181932 2.265099e-06
0.182182 2.239659e-06
0.182432 2.213451e-06
0.182682 2.186489e-06
0.182932 2.158782e-06
0.183182 2.130341e-06
0.183432 2.101178e-06
0.183682 2.071305e-06
0.183932 2.040733e-06
0.184182 2.009474e-06
0.184432 1.977541e-06
0.184682 1.944947e-06
0.184932 1.911704e-06
0.185182 1.877825e-06
0.185432 1.843324e-06
0.185682 1.808213e-06
0.185932 1.772507e-06
0.186182 1.736220e-06
0.186432 1.699365e-06
0.186682 1.661957e-06
0.186932 1.624010e-06
0.187182 1.585539e-06
0.187432 1.546558e-06
0.187682 1.507084e-06
0.187932 1.467129e-06
0.188182 1.426711e-06