-0.138818 -1.561180e-07
-0.138568 -1.597745e-07
-0.138318 -1.633735e-07
-0.138068 -1.669140e-07
-0.137818 -1.703949e-07
-0.137568 -1.738152e-07
-0.137318 -1.771740e-07
-0.137068 -1.804702e-07
-0.136818 -1.837028e-07
-0.136568 -1.868711e-07
-0.136318 -1.899739e-07
-0.136068 -1.930105e-07
-0.135818 -1.959799e-07
-0.135568 -1.988813e-07
-0.135318 -2.017139e-07
-0.135068 -2.044768e-07
-0.134818 -2.071694e-07
-0.134568 -2.097907e-07
-0.134318 -2.123400e-07
-0.134068 -2.148167e-07
-0.133818 -2.172200e-07
-0.133568 -2.195493e-07
-0.133318 -2.218039e-07
-0.133068 -2.239831e-07
-0.132818 -2.260864e-07
-0.132568 -2.281132e-07
-0.132318 -2.300629e-07
-0.132068 -2.319349e-07
-0.131818 -2.337289e-07
-0.131568 -2.354442e-07
-0.131318 -2.370804e-07
-0.131068 -2.386371e-07
-0.130818 -2.401138e-07
-0.130568 -2.415103e-07
-0.130318 -2.428260e-07
-0.130068 -2.440607e-07
-0.129818 -2.452141e-07
-0.129568 -2.462858e-07
-0.129318 -2.472756e-07
-0.129068 -2.481833e-07
-0.128818 -2.490086e-07
-0.128568 -2.497514e-07
-0.128318 -2.504115e-07
-0.128068 -2.509887e-07
-0.127818 -2.514829e-07
-0.127568 -2.518942e-07
-0.127318 -2.522223e-07
-0.127068 -2.524672e-07
-0.126818 -2.526290e-07
-0.126568 -2.527076e-07
-0.126318 -2.527032e-07
-0.126068 -2.526157e-07
-0.125818 -2.524452e-07
-0.125568 -2.521919e-07
-0.125318 -2.518559e-07
-0.125068 -2.514374e-07
-0.124818 -2.509366e-07
-0.124568 -2.503536e-07
-0.124318 -2.496887e-07
-0.124068 -2.489422e-07
-0.123818 -2.481144e-07
-0.123568 -2.472056e-07
-0.123318 -2.462161e-07
-0.123068 -2.451463e-07
-0.122818 -2.439966e-07
-0.122568 -2.427673e-07
-0.122318 -2.414590e-07
-0.122068 -2.400720e-07
-0.121818 -2.386070e-07
-0.121568 -2.370643e-07
-0.121318 -2.354444e-07
-0.121068 -2.337481e-07
-0.120818 -2.319758e-07
-0.120568 -2.301281e-07
-0.120318 -2.282057e-07
-0.120068 -2.262091e-07
-0.119818 -2.241391e-07
-0.119568 -2.219964e-07
-0.119318 -2.197816e-07
-0.119068 -2.174955e-07
-0.118818 -2.151389e-07
-0.118568 -2.127125e-07
-0.118318 -2.102170e-07
-0.118068 -2.076534e-07
-0.117818 -2.050225e-07
-0.117568 -2.023251e-07
-0.117318 -1.995620e-07
-0.117068 -1.967342e-07
-0.116818 -1.938426e-07
-0.116568 -1.908882e-07
-0.116318 -1.878718e-07
-0.116068 -1.847944e-07
-0.115818 -1.816571e-07
-0.115568 -1.784608e-07
-0.115318 -1.752066e-07
-0.115068 -1.718954e-07
-0.114818 -1.685284e-07
-0.114568 -1.651066e-07
-0.114318 -1.616311e-07
-0.114068 -1.581030e-07
-0.113818 -1.545234e-07
-0.113568 -1.508934e-07
-0.113318 -1.472143e-07
-0.113068 -1.434871e-07
-0.112818 -1.397130e-07
-0.112568 -1.358933e-07
-0.112318 -1.320290e-07
-0.112068 -1.281216e-07
-0.111818 -1.241720e-07
-0.111568 -1.201817e-07
-0.111318 -1.161518e-07
-0.111068 -1.120836e-07
-0.110818 -1.079784e-07
-0.110568 -1.038375e-07
-0.110318 -9.966214e-08
-0.110068 -9.545362e-08
-0.109818 -9.121326e-08
-0.109568 -8.694239e-08
-0.109318 -8.264233e-08
-0.109068 -7.831441e-08
-0.108818 -7.395999e-08
-0.108568 -6.958041e-08
-0.108318 -6.517703e-08
-0.108068 -6.075121e-08
-0.107818 -5.630433e-08
-0.107568 -5.183774e-08
-0.107318 -4.735284e-08
-0.107068 -4.285101e-08
-0.106818 -3.833364e-08
-0.106568 -3.380212e-08
-0.106318 -2.925783e-08
-0.106068 -2.470220e-08
-0.105818 -2.013660e-08
-0.105568 -1.556245e-08
-0.105318 -1.098115e-08
-0.105068 -6.394099e-09
-0.104818 -1.802713e-09
-0.104568 2.791606e-09
-0.104318 7.387452e-09
-0.104068 1.198342e-08
-0.103818 1.657810e-08
-0.103568 2.117010e-08
-0.103318 2.575800e-08
-0.103068 3.034042e-08
-0.102818 3.491596e-08
-0.102568 3.948321e-08
-0.102318 4.404080e-08
-0.102068 4.858734e-08
-0.101818 5.312144e-08
-0.101568 5.764172e-08
-0.101318 6.214683e-08
-0.101068 6.663538e-08
-0.100818 7.110603e-08
-0.100568 7.555741e-08
-0.100318 7.998818e-08
-0.100068 8.439700e-08
-0.099818 8.878254e-08
-0.099568 9.314348e-08
-0.099318 9.747850e-08
-0.099068 1.017863e-07
-0.098818 1.060656e-07
-0.098568 1.103150e-07
-0.098318 1.145334e-07
-0.098068 1.187194e-07
-0.097818 1.228718e-07
-0.097568 1.269893e-07
-0.097318 1.310708e-07
-0.097068 1.351149e-07
-0.096818 1.391206e-07
-0.096568 1.430865e-07
-0.096318 1.470115e-07
-0.096068 1.508944e-07
-0.095818 1.547341e-07
-0.095568 1.585294e-07
-0.095318 1.622792e-07
-0.095068 1.659824e-07
-0.094818 1.696379e-07
-0.094568 1.732446e-07
-0.094318 1.768014e-07
-0.094068 1.803074e-07
-0.093818 1.837613e-07
-0.093568 1.871623e-07
-0.093318 1.905093e-07
-0.093068 1.938013e-07
-0.092818 1.970375e-07
-0.092568 2.002167e-07
-0.092318 2.033381e-07
-0.092068 2.064008e-07
-0.091818 2.094039e-07
-0.091568 2.123465e-07
-0.091318 2.152278e-07
-0.091068 2.180468e-07
-0.090818 2.208029e-07
-0.090568 2.234951e-07
-0.090318 2.261228e-07
-0.090068 2.286851e-07
-0.089818 2.311813e-07
-0.089568 2.336107e-07
-0.089318 2.359727e-07
-0.089068 2.382664e-07
-0.088818 2.404914e-07
-0.088568 2.426469e-07
-0.088318 2.447323e-07
-0.088068 2.467470e-07
-0.087818 2.486906e-07
-0.087568 2.505624e-07
-0.087318 2.523618e-07
-0.087068 2.540885e-07
-0.086818 2.557419e-07
-0.086568 2.573216e-07
-0.086318 2.588272e-07
-0.086068 2.602581e-07
-0.085818 2.616141e-07
-0.085568 2.628948e-07
-0.085318 2.640999e-07
-0.085068 2.652289e-07
-0.084818 2.662817e-07
-0.084568 2.672580e-07
-0.084318 2.681574e-07
-0.084068 2.689799e-07
-0.083818 2.697252e-07
-0.083568 2.703930e-07
-0.083318 2.709834e-07
-0.083068 2.714960e-07
-0.082818 2.719309e-07
-0.082568 2.722880e-07
-0.082318 2.725671e-07
-0.082068 2.727683e-07
-0.081818 2.728916e-07
-0.081568 2.729369e-07
-0.081318 2.729044e-07
-0.081068 2.727939e-07
-0.080818 2.726058e-07
-0.080568 2.723400e-07
-0.080318 2.719967e-07
-0.080068 2.715760e-07
-0.079818 2.710782e-07
-0.079568 2.705034e-07
-0.079318 2.698518e-07
-0.079068 2.691238e-07
-0.078818 2.683195e-07
-0.078568 2.674393e-07
-0.078318 2.664835e-07
-0.078068 2.654524e-07
-0.077818 2.643465e-07
-0.077568 2.631660e-07
-0.077318 2.619114e-07
-0.077068 2.605831e-07
-0.076818 2.591816e-07
-0.076568 2.577073e-07
-0.076318 2.561608e-07
-0.076068 2.545426e-07
-0.075818 2.528532e-07
-0.075568 2.510931e-07
-0.075318 2.492630e-07
-0.075068 2.473634e-07
-0.074818 2.453951e-07
-0.074568 2.433585e-07
-0.074318 2.412544e-07
-0.074068 2.390835e-07
-0.073818 2.368465e-07
-0.073568 2.345441e-07
-0.073318 2.321771e-07
-0.073068 2.297461e-07
-0.072818 2.272520e-07
-0.072568 2.246957e-07
-0.072318 2.220778e-07
-0.072068 2.193993e-07
-0.071818 2.166610e-07
-0.071568 2.138638e-07
-0.071318 2.110085e-07
-0.071068 2.080962e-07
-0.070818 2.051276e-07
-0.070568 2.021038e-07
-0.070318 1.990256e-07
-0.070068 1.958941e-07
-0.069818 1.927103e-07
-0.069568 1.894752e-07
-0.069318 1.861897e-07
-0.069068 1.828549e-07
-0.068818 1.794719e-07
-0.068568 1.760417e-07
-0.068318 1.725654e-07
-0.068068 1.690441e-07
-0.067818 1.654789e-07
-0.067568 1.618708e-07
-0.067318 1.582211e-07
-0.067068 1.545308e-07
-0.066818 1.508012e-07
-0.066568 1.470333e-07
-0.066318 1.432283e-07
-0.066068 1.393875e-07
-0.065818 1.355120e-07
-0.065568 1.316030e-07
-0.065318 1.276617e-07
-0.065068 1.236894e-07
-0.064818 1.196872e-07
-0.064568 1.156565e-07
-0.064318 1.115984e-07
-0.064068 1.075142e-07
-0.063818 1.034051e-07
-0.063568 9.927253e-08
-0.063318 9.511763e-08
-0.063068 9.094171e-08
-0.062818 8.674605e-08
-0.062568 8.253193e-08
-0.062318 7.830067e-08
-0.062068 7.405354e-08
-0.061818 6.979185e-08
-0.061568 6.551692e-08
-0.061318 6.123003e-08
-0.061068 5.693252e-08
-0.060818 5.262568e-08
-0.060568 4.831083e-08
-0.060318 4.398930e-08
-0.060068 3.966239e-08
-0.059818 3.533143e-08
-0.059568 3.099773e-08
-0.059318 2.666261e-08
-0.059068 2.232740e-08
-0.058818 1.799340e-08
-0.058568 1.366194e-08
-0.058318 9.334326e-09
-0.058068 5.011871e-09
-0.057818 6.958865e-10
-0.057568 -3.612322e-09
-0.057318 -7.911451e-09
-0.057068 -1.220020e-08
-0.056818 -1.647728e-08
-0.056568 -2.074138e-08
-0.056318 -2.499124e-08
-0.056068 -2.922556e-08
-0.055818 -3.344307e-08
-0.055568 -3.764251e-08
-0.055318 -4.182260e-08
-0.055068 -4.598209e-08
-0.054818 -5.011973e-08
-0.054568 -5.423429e-08
-0.054318 -5.832452e-08
-0.054068 -6.238920e-08
-0.053818 -6.642712e-08
-0.053568 -7.043706e-08
-0.053318 -7.441783e-08
-0.053068 -7.836824e-08
-0.052818 -8.228711e-08
-0.052568 -8.617327e-08
-0.052318 -9.002556e-08
-0.052068 -9.384284e-08
-0.051818 -9.762398e-08
-0.051568 -1.013678e-07
-0.051318 -1.050733e-07
-0.051068 -1.087393e-07
-0.050818 -1.123647e-07
-0.050568 -1.159485e-07
-0.050318 -1.194896e-07
-0.050068 -1.229869e-07
-0.049818 -1.264395e-07
-0.049568 -1.298463e-07
-0.049318 -1.332062e-07
-0.049068 -1.365184e-07
-0.048818 -1.397819e-07
-0.048568 -1.429956e-07
-0.048318 -1.461586e-07
-0.048068 -1.492701e-07
-0.047818 -1.523291e-07
-0.047568 -1.553347e-07
-0.047318 -1.582860e-07
-0.047068 -1.611822e-07
-0.046818 -1.640225e-07
-0.046568 -1.668059e-07
-0.046318 -1.695318e-07
-0.046068 -1.721993e-07
-0.045818 -1.748077e-07
-0.045568 -1.773562e-07
-0.045318 -1.798440e-07
-0.045068 -1.822705e-07
-0.044818 -1.846350e-07
-0.044568 -1.869367e-07
-0.044318 -1.891751e-07
-0.044068 -1.913495e-07
-0.043818 -1.934593e-07
-0.043568 -1.955038e-07
-0.043318 -1.974826e-07
-0.043068 -1.993951e-07
-0.042818 -2.012406e-07
-0.042568 -2.030188e-07
-0.042318 -2.047291e-07
-0.042068 -2.063710e-07
-0.041818 -2.079442e-07
-0.041568 -2.094481e-07
-0.041318 -2.108823e-07
-0.041068 -2.122466e-07
-0.040818 -2.135404e-07
-0.040568 -2.147635e-07
-0.040318 -2.159156e-07
-0.040068 -2.169963e-07
-0.039818 -2.180053e-07
-0.039568 -2.189425e-07
-0.039318 -2.198076e-07
-0.039068 -2.206003e-07
-0.038818 -2.213204e-07
-0.038568 -2.219679e-07
-0.038318 -2.225426e-07
-0.038068 -2.230443e-07
-0.037818 -2.234729e-07
-0.037568 -2.238284e-07
-0.037318 -2.241107e-07
-0.037068 -2.243198e-07
-0.036818 -2.244556e-07
-0.036568 -2.245182e-07
-0.036318 -2.245076e-07
-0.036068 -2.244238e-07
-0.035818 -2.242670e-07
-0.035568 -2.240372e-07
-0.035318 -2.237346e-07
-0.035068 -2.233593e-07
-0.034818 -2.229114e-07
-0.034568 -2.223912e-07
-0.034318 -2.217988e-07
-0.034068 -2.211346e-07
-0.033818 -2.203987e-07
-0.033568 -2.195914e-07
-0.033318 -2.187130e-07
-0.033068 -2.177639e-07
-0.032818 -2.167443e-07
-0.032568 -2.156547e-07
-0.032318 -2.144954e-07
-0.032068 -2.132668e-07
-0.031818 -2.119693e-07
-0.031568 -2.106035e-07
-0.031318 -2.091696e-07
-0.031068 -2.076683e-07
-0.030818 -2.061001e-07
-0.030568 -2.044654e-07
-0.030318 -2.027648e-07
-0.030068 -2.009989e-07
-0.029818 -1.991682e-07
-0.029568 -1.972734e-07
-0.029318 -1.953150e-07
-0.029068 -1.932938e-07
-0.028818 -1.912103e-07
-0.028568 -1.890653e-07
-0.028318 -1.868595e-07
-0.028068 -1.845935e-07
-0.027818 -1.822681e-07
-0.027568 -1.798841e-07
-0.027318 -1.774422e-07
-0.027068 -1.749431e-07
-0.026818 -1.723878e-07
-0.026568 -1.697770e-07
-0.026318 -1.671115e-07
-0.026068 -1.643922e-07
-0.025818 -1.616200e-07
-0.025568 -1.587958e-07
-0.025318 -1.559203e-07
-0.025068 -1.529947e-07
-0.024818 -1.500197e-07
-0.024568 -1.469963e-07
-0.024318 -1.439255e-07
-0.024068 -1.408082e-07
-0.023818 -1.376455e-07
-0.023568 -1.344383e-07
-0.023318 -1.311876e-07
-0.023068 -1.278944e-07
-0.022818 -1.245598e-07
-0.022568 -1.211849e-07
-0.022318 -1.177706e-07
-0.022068 -1.143181e-07
-0.021818 -1.108283e-07
-0.021568 -1.073025e-07
-0.021318 -1.037417e-07
-0.021068 -1.001471e-07
-0.020818 -9.651964e-08
-0.020568 -9.286058e-08
-0.020318 -8.917102e-08
-0.020068 -8.545210e-08
-0.019818 -8.170499e-08
-0.019568 -7.793084e-08
-0.019318 -7.413083e-08
-0.019068 -7.030612e-08
-0.018818 -6.645791e-08
-0.018568 -6.258738e-08
-0.018318 -5.869572e-08
-0.018068 -5.478414e-08
-0.017818 -5.085385e-08
-0.017568 -4.690605e-08
-0.017318 -4.294197e-08
-0.017068 -3.896282e-08
-0.016818 -3.496983e-08
-0.016568 -3.096422e-08
-0.016318 -2.694723e-08
-0.016068 -2.292009e-08
-0.015818 -1.888404e-08
-0.015568 -1.484031e-08
-0.015318 -1.079015e-08
-0.015068 -6.734796e-09
-0.014818 -2.675492e-09
-0.014568 1.386519e-09
-0.014318 5.449993e-09
-0.014068 9.513687e-09
-0.013818 1.357636e-08
-0.013568 1.763676e-08
-0.013318 2.169366e-08
-0.013068 2.574582e-08
-0.012818 2.979199e-08
-0.012568 3.383094e-08
-0.012318 3.786144e-08
-0.012068 4.188227e-08
-0.011818 4.589218e-08
-0.011568 4.988996e-08
-0.011318 5.387440e-08
-0.011068 5.784427e-08
-0.010818 6.179837e-08
-0.010568 6.573549e-08
-0.010318 6.965443e-08
-0.010068 7.355399e-08
-0.009818 7.743300e-08
-0.009568 8.129026e-08
-0.009318 8.512460e-08
-0.009068 8.893486e-08
-0.008818 9.271987e-08
-0.008568 9.647847e-08
-0.008318 1.002095e-07
-0.008068 1.039119e-07
-0.007818 1.075844e-07
-0.007568 1.112261e-07
-0.007318 1.148356e-07
-0.007068 1.184120e-07
-0.006818 1.219542e-07
-0.006568 1.254610e-07
-0.006318 1.289314e-07
-0.006068 1.323643e-07
-0.005818 1.357587e-07
-0.005568 1.391136e-07
-0.005318 1.424278e-07
-0.005068 1.457004e-07
-0.004818 1.489304e-07
-0.004568 1.521167e-07
-0.004318 1.552584e-07
-0.004068 1.583545e-07
-0.003818 1.614040e-07
-0.003568 1.644060e-07
-0.003318 1.673595e-07
-0.003068 1.702637e-07
-0.002818 1.731175e-07
-0.002568 1.759201e-07
-0.002318 1.786706e-07
-0.002068 1.813682e-07
-0.001818 1.840118e-07
-0.001568 1.866008e-07
-0.001318 1.891342e-07
-0.001068 1.916112e-07
-0.000818 1.940310e-07
-0.000568 1.963929e-07
-0.000318 1.986959e-07
-0.000068 2.009394e-07
0.000182 2.031225e-07
0.000432 2.052445e-07
0.000682 2.073047e-07
0.000932 2.093023e-07
0.001182 2.112367e-07
0.001432 2.131070e-07
0.001682 2.149127e-07
0.001932 2.166530e-07
0.002182 2.183273e-07
0.002432 2.199348e-07
0.002682 2.214750e-07
0.002932 2.229472e-07
0.003182 2.243507e-07
0.003432 2.256851e-07
0.003682 2.269495e-07
0.003932 2.281435e-07
0.004182 2.292664e-07
0.004432 2.303177e-07
0.004682 2.312967e-07
0.004932 2.322029e-07
0.005182 2.330357e-07
0.005432 2.337946e-07
0.005682 2.344790e-07
0.005932 2.350884e-07
0.006182 2.356221e-07
0.006432 2.360797e-07
0.006682 2.364606e-07
0.006932 2.367642e-07
0.007182 2.369901e-07
0.007432 2.371375e-07
0.007682 2.372061e-07
0.007932 2.371953e-07
0.008182 2.371044e-07
0.008432 2.369330e-07
0.008682 2.366804e-07
0.008932 2.363460e-07
0.009182 2.359294e-07
0.009432 2.354298e-07
0.009682 2.348467e-07
0.009932 2.341795e-07
0.010182 2.334274e-07
0.010432 2.325899e-07
0.010682 2.316662e-07
0.010932 2.306557e-07
0.011182 2.295576e-07
0.011432 2.283711e-07
0.011682 2.270956e-07
0.011932 2.257301e-07
0.012182 2.242739e-07
0.012432 2.227260e-07
0.012682 2.210855e-07
0.012932 2.193516e-07
0.013182 2.175231e-07
0.013432 2.155991e-07
0.013682 2.135784e-07
0.013932 2.114599e-07
0.014182 2.092425e-07
0.014432 2.069248e-07
0.014682 2.045055e-07
0.014932 2.019832e-07
0.015182 1.993566e-07
0.015432 1.966239e-07
0.015682 1.937838e-07
0.015932 1.908343e-07
0.016182 1.877739e-07
0.016432 1.846005e-07
0.016682 1.813123e-07
0.016932 1.779071e-07
0.017182 1.743829e-07
0.017432 1.707372e-07
0.017682 1.669677e-07
0.017932 1.630719e-07
0.018182 1.590471e-07
0.018432 1.548905e-07
0.018682 1.505992e-07
0.018932 1.461700e-07
0.019182 1.415998e-07
0.019432 1.368851e-07
0.019682 1.320223e-07
0.019932 1.270077e-07
0.020182 1.218373e-07
0.020432 1.165070e-07
0.020682 1.110124e-07
0.020932 1.053490e-07
0.021182 9.951188e-08
0.021432 9.349609e-08
0.021682 8.729635e-08
0.021932 8.090713e-08
0.022182 7.432262e-08
0.022432 6.753676e-08
0.022682 6.054317e-08
0.022932 5.333521e-08
0.023182 4.590587e-08
0.023432 3.824787e-08
0.023682 3.035354e-08
0.023932 2.221488e-08
0.024182 1.382352e-08
0.024432 5.170701e-09
0.024682 -3.752745e-09
0.024932 -1.295639e-08
0.025182 -2.245025e-08
0.025432 -3.224479e-08
0.025682 -4.235093e-08
0.025932 -5.278009e-08
0.026182 -6.354421e-08
0.026432 -7.465572e-08
0.026682 -8.612763e-08
0.026932 -9.797350e-08
0.027182 -1.102075e-07
0.027432 -1.228443e-07
0.027682 -1.358995e-07
0.027932 -1.493890e-07
0.028182 -1.633296e-07
0.028432 -1.777387e-07
0.028682 -1.926345e-07
0.028932 -2.080361e-07
0.029182 -2.239631e-07
0.029432 -2.404361e-07
0.029682 -2.574765e-07
0.029932 -2.751067e-07
0.030182 -2.933498e-07
0.030432 -3.122300e-07
0.030682 -3.317724e-07
0.030932 -3.520033e-07
0.031182 -3.729498e-07
0.031432 -3.946403e-07
0.031682 -4.171041e-07
0.031932 -4.403719e-07
0.032182 -4.644755e-07
0.032432 -4.894480e-07
0.032682 -5.153236e-07
0.032932 -5.421382e-07
0.033182 -5.699287e-07
0.033432 -5.987338e-07
0.033682 -6.285933e-07
0.033932 -6.595489e-07
0.034182 -6.916437e-07
0.034432 -7.249223e-07
0.034682 -7.594313e-07
0.034932 -7.952189e-07
0.035182 -8.323349e-07
0.035432 -8.708314e-07
0.035682 -9.107621e-07
0.035932 -9.521827e-07
0.036182 -9.951511e-07
0.036432 -1.039727e-06
0.036682 -1.085973e-06
0.036932 -1.133954e-06
0.037182 -1.183735e-06
0.037432 -1.235387e-06
0.037682 -1.288980e-06
0.037932 -1.344590e-06
0.038182 -1.402292e-06
0.038432 -1.462167e-06
0.038682 -1.524296e-06
0.038932 -1.588765e-06
0.039182 -1.655663e-06
0.039432 -1.725080e-06
0.039682 -1.797110e-06
0.039932 -1.871853e-06
0.040182 -1.949408e-06
0.040432 -2.029881e-06
0.040682 -2.113379e-06
0.040932 -2.200015e-06
0.041182 -2.289903e-06
0.041432 -2.383163e-06
0.041682 -2.479919e-06
0.041932 -2.580298e-06
0.042182 -2.684433e-06
0.042432 -2.792458e-06
0.042682 -2.904516e-06
0.042932 -3.020750e-06
0.043182 -3.141311e-06
0.043432 -3.266355e-06
0.043682 -3.396040e-06
0.043932 -3.530532e-06
0.044182 -3.670002e-06
0.044432 -3.814624e-06
0.044682 -3.964580e-06
0.044932 -4.120057e-06
0.045182 -4.281249e-06
0.045432 -4.448353e-06
0.045682 -4.621576e-06
0.045932 -4.801129e-06
0.046182 -4.987229e-06
0.046432 -5.180102e-06
0.046682 -5.379980e-06
0.046932 -5.587100e-06
0.047182 -5.801709e-06
0.047432 -6.024061e-06
0.047682 -6.254415e-06
0.047932 -6.493042e-06
0.048182 -6.740217e-06
0.048432 -6.996226e-06
0.048682 -7.261362e-06
0.048932 -7.535927e-06
0.049182 -7.820231e-06
0.049432 -8.114594e-06
0.049682 -8.419346e-06
0.049932 -8.734824e-06
0.050182 -9.061376e-06
0.050432 -9.399361e-06
0.050682 -9.749147e-06
0.050932 -1.011111e-05
0.051182 -1.048564e-05
0.051432 -1.087314e-05
0.051682 -1.127402e-05
0.051932 -1.168870e-05
0.052182 -1.211761e-05
0.052432 -1.256120e-05
0.052682 -1.301993e-05
0.052932 -1.349427e-05
0.053182 -1.398469e-05
0.053432 -1.449170e-05
0.053682 -1.501580e-05
0.053932 -1.555752e-05
0.054182 -1.611739e-05
0.054432 -1.669596e-05
0.054682 -1.729379e-05
0.054932 -1.791146e-05
0.055182 -1.854956e-05
0.055432 -1.920870e-05
0.055682 -1.988951e-05
0.055932 -2.059262e-05
0.056182 -2.131869e-05
0.056432 -2.206839e-05
0.056682 -2.284240e-05
0.056932 -2.364144e-05
0.057182 -2.446621e-05
0.057432 -2.531746e-05
0.057682 -2.619595e-05
0.057932 -2.710245e-05
0.058182 -2.803775e-05
0.058432 -2.900267e-05
0.058682 -2.999803e-05
0.058932 -3.102468e-05
0.059182 -3.208350e-05
0.059432 -3.317536e-05
0.059682 -3.430119e-05
0.059932 -3.546190e-05
0.060182 -3.665845e-05
0.060432 -3.789181e-05
0.060682 -3.916298e-05
0.060932 -4.047295e-05
0.061182 -4.182278e-05
0.061432 -4.321352e-05
0.061682 -4.464625e-05
0.061932 -4.612208e-05
0.062182 -4.764212e-05
0.062432 -4.920753e-05
0.062682 -5.081949e-05
0.062932 -5.247918e-05
0.063182 -5.418784e-05
0.063432 -5.594671e-05
0.063682 -5.775706e-05
0.063932 -5.962019e-05
0.064182 -6.153741e-05
0.064432 -6.351008e-05
0.064682 -6.553956e-05
0.064932 -6.762726e-05
0.065182 -6.977460e-05
0.065432 -7.198303e-05
0.065682 -7.425403e-05
0.065932 -7.658911e-05
0.066182 -7.898979e-05
0.066432 -8.145763e-05
0.066682 -8.399423e-05
0.066932 -8.660120e-05
0.067182 -8.928018e-05
0.067432 -9.203283e-05
0.067682 -9.486086e-05
0.067932 -9.776599e-05
0.068182 -1.007500e-04
0.068432 -1.038146e-04
0.068682 -1.069617e-04
0.068932 -1.101931e-04
0.069182 -1.135106e-04
0.069432 -1.169162e-04
0.069682 -1.204118e-04
0.069932 -1.239993e-04
0.070182 -1.276807e-04
0.070432 -1.314581e-04
0.070682 -1.353334e-04
0.070932 -1.393088e-04
0.071182 -1.433863e-04
0.071432 -1.475681e-04
0.071682 -1.518563e-04
0.071932 -1.562531e-04
0.072182 -1.607607e-04
0.072432 -1.653814e-04
0.072682 -1.701173e-04
0.072932 -1.749709e-04
0.073182 -1.799445e-04
0.073432 -1.850403e-04
0.073682 -1.902607e-04
0.073932 -1.956082e-04
0.074182 -2.010852e-04
0.074432 -2.066940e-04
0.074682 -2.124373e-04
0.074932 -2.183175e-04
0.075182 -2.243372e-04
0.075432 -2.304988e-04
0.075682 -2.368049e-04
0.075932 -2.432582e-04
0.076182 -2.498612e-04
0.076432 -2.566167e-04
0.076682 -2.635272e-04
0.076932 -2.705954e-04
0.077182 -2.778241e-04
0.077432 -2.852159e-04
0.077682 -2.927736e-04
0.077932 -3.005000e-04
0.078182 -3.083977e-04
0.078432 -3.164697e-04
0.078682 -3.247186e-04
0.078932 -3.331473e-04
0.079182 -3.417587e-04
0.079432 -3.505555e-04
0.079682 -3.595406e-04
0.079932 -3.687169e-04
0.080182 -3.780872e-04
0.080432 -3.876544e-04
0.080682 -3.974214e-04
0.080932 -4.073910e-04
0.081182 -4.175662e-04
0.081432 -4.279498e-04
0.081682 -4.385447e-04
0.081932 -4.493538e-04
0.082182 -4.603800e-04
0.082432 -4.716262e-04
0.082682 -4.830952e-04
0.082932 -4.947899e-04
0.083182 -5.067132e-04
0.083432 -5.188678e-04
0.083682 -5.312568e-04
0.083932 -5.438828e-04
0.084182 -5.567487e-04
0.084432 -5.698573e-04
0.084682 -5.832114e-04
0.084932 -5.968136e-04
0.085182 -6.106668e-04
0.085432 -6.247736e-04
0.085682 -6.391367e-04
0.085932 -6.537587e-04
0.086182 -6.686424e-04
0.086432 -6.837902e-04
0.086682 -6.992046e-04
0.086932 -7.148883e-04
0.087182 -7.308437e-04
0.087432 -7.470732e-04
0.087682 -7.635792e-04
0.087932 -7.803639e-04
0.088182 -7.974298e-04
0.088432 -8.147791e-04
0.088682 -8.324139e-04
0.088932 -8.503363e-04
0.089182 -8.685484e-04
0.089432 -8.870522e-04
0.089682 -9.058497e-04
0.089932 -9.249427e-04
0.090182 -9.443330e-04
0.090432 -9.640224e-04
0.090682 -9.840124e-04
0.090932 -1.004305e-03
0.091182 -1.024901e-03
0.091432 -1.045802e-03
0.091682 -1.067010e-03
0.091932 -1.088525e-03
0.092182 -1.110350e-03
0.092432 -1.132484e-03
0.092682 -1.154929e-03
0.092932 -1.177686e-03
0.093182 -1.200755e-03
0.093432 -1.224137e-03
0.093682 -1.247833e-03
0.093932 -1.271843e-03
0.094182 -1.296167e-03
0.094432 -1.320806e-03
0.094682 -1.345760e-03
0.094932 -1.371027e-03
0.095182 -1.396610e-03
0.095432 -1.422506e-03
0.095682 -1.448715e-03
0.095932 -1.475238e-03
0.096182 -1.502073e-03
0.096432 -1.529219e-03
0.096682 -1.556675e-03
0.096932 -1.584441e-03
0.097182 -1.612514e-03
0.097432 -1.640894e-03
0.097682 -1.669578e-03
0.097932 -1.698566e-03
0.098182 -1.727854e-03
0.098432 -1.757441e-03
0.098682 -1.787325e-03
0.098932 -1.817503e-03
0.099182 -1.847973e-03
0.099432 -1.878731e-03
0.099682 -1.909775e-03
0.099932 -1.941101e-03
0.100182 -1.972707e-03
0.100432 -2.004589e-03
0.100682 -2.036742e-03
0.100932 -2.069164e-03
0.101182 -2.101850e-03
0.101432 -2.134795e-03
0.101682 -2.167996e-03
0.101932 -2.201447e-03
0.102182 -2.235144e-03
0.102432 -2.269082e-03
0.102682 -2.303255e-03
0.102932 -2.337658e-03
0.103182 -2.372285e-03
0.103432 -2.407130e-03
0.103682 -2.442188e-03
0.103932 -2.477451e-03
0.104182 -2.512914e-03
0.104432 -2.548569e-03
0.104682 -2.584410e-03
0.104932 -2.620429e-03
0.105182 -2.656620e-03
0.105432 -2.692974e-03
0.105682 -2.729483e-03
0.105932 -2.766140e-03
0.106182 -2.802937e-03
0.106432 -2.839864e-03
0.106682 -2.876914e-03
0.106932 -2.914077e-03
0.107182 -2.951344e-03
0.107432 -2.988706e-03
0.107682 -3.026153e-03
0.107932 -3.063676e-03
0.108182 -3.101264e-03
0.108432 -3.138908e-03
0.108682 -3.176596e-03
0.108932 -3.214319e-03
0.109182 -3.252065e-03
0.109432 -3.289824e-03
0.109682 -3.327584e-03
0.109932 -3.365333e-03
0.110182 -3.403061e-03
0.110432 -3.440755e-03
0.110682 -3.478402e-03
0.110932 -3.515992e-03
0.111182 -3.553511e-03
0.111432 -3.590947e-03
0.111682 -3.628287e-03
0.111932 -3.665518e-03
0.112182 -3.702627e-03
0.112432 -3.739600e-03
0.112682 -3.776423e-03
0.112932 -3.813084e-03
0.113182 -3.849568e-03
0.113432 -3.885861e-03
0.113682 -3.921949e-03
0.113932 -3.957818e-03
0.114182 -3.993452e-03
0.114432 -4.028838e-03
0.114682 -4.063961e-03
0.114932 -4.098805e-03
0.115182 -4.133356e-03
0.115432 -4.167598e-03
0.115682 -4.201516e-03
0.115932 -4.235094e-03
0.116182 -4.268318e-03
0.116432 -4.301171e-03
0.116682 -4.333638e-03
0.116932 -4.365702e-03
0.117182 -4.397349e-03
0.117432 -4.428561e-03
0.117682 -4.459324e-03
0.117932 -4.489620e-03
0.118182 -4.519434e-03
0.118432 -4.548749e-03
0.118682 -4.577550e-03
0.118932 -4.605819e-03
0.119182 -4.633541e-03
0.119432 -4.660699e-03
0.119682 -4.687277e-03
0.119932 -4.713259e-03
0.120182 -4.738627e-03
0.120432 -4.763367e-03
0.120682 -4.787461e-03
0.120932 -4.810893e-03
0.121182 -4.833648e-03
0.121432 -4.855708e-03
0.121682 -4.877058e-03
0.121932 -4.897682e-03
0.122182 -4.917564e-03
0.122432 -4.936687e-03
0.122682 -4.955036e-03
0.122932 -4.972596e-03
0.123182 -4.989351e-03
0.123432 -5.005285e-03
0.123682 -5.020382e-03
0.123932 -5.034629e-03
0.124182 -5.048009e-03
0.124432 -5.060508e-03
0.124682 -5.072112e-03
0.124932 -5.082804e-03
0.125182 -5.092572e-03
0.125432 -5.101401e-03
0.125682 -5.109278e-03
0.125932 -5.116187e-03
0.126182 -5.122117e-03
0.126432 -5.127053e-03
0.126682 -5.130983e-03
0.126932 -5.133894e-03
0.127182 -5.135773e-03
0.127432 -5.136608e-03
0.127682 -5.136387e-03
0.127932 -5.135099e-03
0.128182 -5.132732e-03
0.128432 -5.129275e-03
0.128682 -5.124718e-03
0.128932 -5.119049e-03
0.129182 -5.112260e-03
0.129432 -5.104340e-03
0.129682 -5.095279e-03
0.129932 -5.085070e-03
0.130182 -5.073703e-03
0.130432 -5.061170e-03
0.130682 -5.047463e-03
0.130932 -5.032575e-03
0.131182 -5.016498e-03
0.131432 -4.999226e-03
0.131682 -4.980754e-03
0.131932 -4.961074e-03
0.132182 -4.940182e-03
0.132432 -4.918073e-03
0.132682 -4.894742e-03
0.132932 -4.870185e-03
0.133182 -4.844400e-03
0.133432 -4.817381e-03
0.133682 -4.789128e-03
0.133932 -4.759638e-03
0.134182 -4.728909e-03
0.134432 -4.696940e-03
0.134682 -4.663731e-03
0.134932 -4.629280e-03
0.135182 -4.593590e-03
0.135432 -4.556660e-03
0.135682 -4.518492e-03
0.135932 -4.479087e-03
0.136182 -4.438449e-03
0.136432 -4.396580e-03
0.136682 -4.353483e-03
0.136932 -4.309163e-03
0.137182 -4.263624e-03
0.137432 -4.216871e-03
0.137682 -4.168910e-03
0.137932 -4.119746e-03
0.138182 -4.069387e-03
0.138432 -4.017840e-03
0.138682 -3.965112e-03
0.138932 -3.911212e-03
0.139182 -3.856148e-03
0.139432 -3.799930e-03
0.139682 -3.742568e-03
0.139932 -3.684072e-03
0.140182 -3.624453e-03
0.140432 -3.563723e-03
0.140682 -3.501893e-03
0.140932 -3.438977e-03
0.141182 -3.374987e-03
0.141432 -3.309937e-03
0.141682 -3.243841e-03
0.141932 -3.176714e-03
0.142182 -3.108571e-03
0.142432 -3.039427e-03
0.142682 -2.969299e-03
0.142932 -2.898203e-03
0.143182 -2.826157e-03
0.143432 -2.753178e-03
0.143682 -2.679285e-03
0.143932 -2.604495e-03
0.144182 -2.528829e-03
0.144432 -2.452305e-03
0.144682 -2.374943e-03
0.144932 -2.296765e-03
0.145182 -2.217791e-03
0.145432 -2.138041e-03
0.145682 -2.057539e-03
0.145932 -1.976306e-03
0.146182 -1.894364e-03
0.146432 -1.811736e-03
0.146682 -1.728447e-03
0.146932 -1.644519e-03
0.147182 -1.559977e-03
0.147432 -1.474844e-03
0.147682 -1.389146e-03
0.147932 -1.302909e-03
0.148182 -1.216156e-03
0.148432 -1.128914e-03
0.148682 -1.041209e-03
0.148932 -9.530678e-04
0.149182 -8.645160e-04
0.149432 -7.755808e-04
0.149682 -6.862894e-04
0.149932 -5.966689e-04
0.150182 -5.067470e-04
0.150432 -4.165514e-04
0.150682 -3.261100e-04
0.150932 -2.354509e-04
0.151182 -1.446024e-04
0.151432 -5.359299e-05
0.151682 3.754877e-05
0.151932 1.287942e-04
0.152182 2.201144e-04
0.152432 3.114805e-04
0.152682 4.028636e-04
0.152932 4.942344e-04
0.153182 5.855640e-04
0.153432 6.768230e-04
0.153682 7.679825e-04
0.153932 8.590130e-04
0.154182 9.498854e-04
0.154432 1.040571e-03
0.154682 1.131039e-03
0.154932 1.221263e-03
0.155182 1.311211e-03
0.155432 1.400857e-03
0.155682 1.490169e-03
0.155932 1.579121e-03
0.156182 1.667683e-03
0.156432 1.755826e-03
0.156682 1.843523e-03
0.156932 1.930745e-03
0.157182 2.017465e-03
0.157432 2.103653e-03
0.157682 2.189283e-03
0.157932 2.274328e-03
0.158182 2.358760e-03
0.158432 2.442552e-03
0.158682 2.525677e-03
0.158932 2.608110e-03
0.159182 2.689825e-03
0.159432 2.770794e-03
0.159682 2.850994e-03
0.159932 2.930398e-03
0.160182 3.008983e-03
0.160432 3.086723e-03
0.160682 3.163595e-03
0.160932 3.239575e-03
0.161182 3.314640e-03
0.161432 3.388766e-03
0.161682 3.461931e-03
0.161932 3.534114e-03
0.162182 3.605293e-03
0.162432 3.675446e-03
0.162682 3.744552e-03
0.162932 3.812592e-03
0.163182 3.879546e-03
0.163432 3.945395e-03
0.163682 4.010119e-03
0.163932 4.073700e-03
0.164182 4.136121e-03
0.164432 4.197364e-03
0.164682 4.257413e-03
0.164932 4.316251e-03
0.165182 4.373863e-03
0.165432 4.430233e-03
0.165682 4.485348e-03
0.165932 4.539192e-03
0.166182 4.591753e-03
0.166432 4.643018e-03
0.166682 4.692974e-03
0.166932 4.741609e-03
0.167182 4.788914e-03
0.167432 4.834876e-03
0.167682 4.879487e-03
0.167932 4.922736e-03
0.168182 4.964615e-03
0.168432 5.005116e-03
0.168682 5.044231e-03
0.168932 5.081953e-03
0.169182 5.118277e-03
0.169432 5.153196e-03
0.169682 5.186704e-03
0.169932 5.218799e-03
0.170182 5.249475e-03
0.170432 5.278729e-03
0.170682 5.306560e-03
0.170932 5.332963e-03
0.171182 5.357939e-03
0.171432 5.381486e-03
0.171682 5.403604e-03
0.171932 5.424294e-03
0.172182 5.443555e-03
0.172432 5.461390e-03
0.172682 5.477800e-03
0.172932 5.492789e-03
0.173182 5.506360e-03
0.173432 5.518516e-03
0.173682 5.529261e-03
0.173932 5.538602e-03
0.174182 5.546542e-03
0.174432 5.553089e-03
0.174682 5.558249e-03
0.174932 5.562028e-03
0.175182 5.564436e-03
0.175432 5.565479e-03
0.175682 5.565167e-03
0.175932 5.563508e-03
0.176182 5.560513e-03
0.176432 5.556192e-03
0.176682 5.550555e-03
0.176932 5.543614e-03
0.177182 5.535380e-03
0.177432 5.525866e-03
0.177682 5.515083e-03
0.177932 5.503045e-03
0.178182 5.489766e-03
0.178432 5.475259e-03
0.178682 5.459539e-03
0.178932 5.442619e-03
0.179182 5.424516e-03
0.179432 5.405245e-03
0.179682 5.384821e-03
0.179932 5.363261e-03
0.180182 5.340581e-03
0.180432 5.316798e-03
0.180682 5.291929e-03
0.180932 5.265992e-03
0.181182 5.239005e-03
0.181432 5.210985e-03
0.181682 5.181951e-03
0.181932 5.151921e-03
0.182182 5.120916e-03
0.182432 5.088952e-03
0.182682 5.056051e-03
0.182932 5.022231e-03
0.183182 4.987513e-03
0.183432 4.951916e-03
0.183682 4.915461e-03
0.183932 4.878167e-03
0.184182 4.840056e-03
0.184432 4.801148e-03
0.184682 4.761464e-03
0.184932 4.721025e-03
0.185182 4.679851e-03
0.185432 4.637965e-03
0.185682 4.595387e-03
0.185932 4.552138e-03
0.186182 4.508240e-03