-0.138818 8.103814e-06
-0.138568 8.002566e-06
-0.138318 7.898892e-06
-0.138068 7.792826e-06
-0.137818 7.684403e-06
-0.137568 7.573658e-06
-0.137318 7.460625e-06
-0.137068 7.345342e-06
-0.136818 7.227846e-06
-0.136568 7.108174e-06
-0.136318 6.986365e-06
-0.136068 6.862458e-06
-0.135818 6.736492e-06
-0.135568 6.608508e-06
-0.135318 6.478546e-06
-0.135068 6.346648e-06
-0.134818 6.212856e-06
-0.134568 6.077213e-06
-0.134318 5.939762e-06
-0.134068 5.800546e-06
-0.133818 5.659609e-06
-0.133568 5.516997e-06
-0.133318 5.372755e-06
-0.133068 5.226927e-06
-0.132818 5.079561e-06
-0.132568 4.930703e-06
-0.132318 4.780399e-06
-0.132068 4.628698e-06
-0.131818 4.475647e-06
-0.131568 4.321295e-06
-0.131318 4.165689e-06
-0.131068 4.008880e-06
-0.130818 3.850916e-06
-0.130568 3.691847e-06
-0.130318 3.531722e-06
-0.130068 3.370593e-06
-0.129818 3.208510e-06
-0.129568 3.045523e-06
-0.129318 2.881683e-06
-0.129068 2.717043e-06
-0.128818 2.551653e-06
-0.128568 2.385565e-06
-0.128318 2.218830e-06
-0.128068 2.051502e-06
-0.127818 1.883632e-06
-0.127568 1.715273e-06
-0.127318 1.546476e-06
-0.127068 1.377296e-06
-0.126818 1.207783e-06
-0.126568 1.037992e-06
-0.126318 8.679743e-07
-0.126068 6.977834e-07
-0.125818 5.274720e-07
-0.125568 3.570930e-07
-0.125318 1.866993e-07
-0.125068 1.634357e-08
-0.124818 -1.539212e-07
-0.124568 -3.240425e-07
-0.124318 -4.939675e-07
-0.124068 -6.636437e-07
-0.123818 -8.330186e-07
-0.123568 -1.002040e-06
-0.123318 -1.170656e-06
-0.123068 -1.338813e-06
-0.122818 -1.506461e-06
-0.122568 -1.673548e-06
-0.122318 -1.840022e-06
-0.122068 -2.005832e-06
-0.121818 -2.170927e-06
-0.121568 -2.335256e-06
-0.121318 -2.498768e-06
-0.121068 -2.661414e-06
-0.120818 -2.823144e-06
-0.120568 -2.983907e-06
-0.120318 -3.143655e-06
-0.120068 -3.302339e-06
-0.119818 -3.459910e-06
-0.119568 -3.616320e-06
-0.119318 -3.771521e-06
-0.119068 -3.925465e-06
-0.118818 -4.078107e-06
-0.118568 -4.229398e-06
-0.118318 -4.379293e-06
-0.118068 -4.527747e-06
-0.117818 -4.674714e-06
-0.117568 -4.820149e-06
-0.117318 -4.964009e-06
-0.117068 -5.106249e-06
-0.116818 -5.246826e-06
-0.116568 -5.385698e-06
-0.116318 -5.522822e-06
-0.116068 -5.658158e-06
-0.115818 -5.791664e-06
-0.115568 -5.923300e-06
-0.115318 -6.053026e-06
-0.115068 -6.180803e-06
-0.114818 -6.306593e-06
-0.114568 -6.430357e-06
-0.114318 -6.552058e-06
-0.114068 -6.671661e-06
-0.113818 -6.789128e-06
-0.113568 -6.904425e-06
-0.113318 -7.017518e-06
-0.113068 -7.128371e-06
-0.112818 -7.236954e-06
-0.112568 -7.343232e-06
-0.112318 -7.447174e-06
-0.112068 -7.548751e-06
-0.111818 -7.647930e-06
-0.111568 -7.744683e-06
-0.111318 -7.838982e-06
-0.111068 -7.930798e-06
-0.110818 -8.020104e-06
-0.110568 -8.106875e-06
-0.110318 -8.191084e-06
-0.110068 -8.272707e-06
-0.109818 -8.351720e-06
-0.109568 -8.428100e-06
-0.109318 -8.501826e-06
-0.109068 -8.572874e-06
-0.108818 -8.641226e-06
-0.108568 -8.706861e-06
-0.108318 -8.769761e-06
-0.108068 -8.829907e-06
-0.107818 -8.887283e-06
-0.107568 -8.941872e-06
-0.107318 -8.993658e-06
-0.107068 -9.042629e-06
-0.106818 -9.088768e-06
-0.106568 -9.132065e-06
-0.106318 -9.172507e-06
-0.106068 -9.210084e-06
-0.105818 -9.244784e-06
-0.105568 -9.276599e-06
-0.105318 -9.305522e-06
-0.105068 -9.331543e-06
-0.104818 -9.354658e-06
-0.104568 -9.374860e-06
-0.104318 -9.392145e-06
-0.104068 -9.406508e-06
-0.103818 -9.417948e-06
-0.103568 -9.426462e-06
-0.103318 -9.432050e-06
-0.103068 -9.434710e-06
-0.102818 -9.434444e-06
-0.102568 -9.431254e-06
-0.102318 -9.425142e-06
-0.102068 -9.416112e-06
-0.101818 -9.404167e-06
-0.101568 -9.389314e-06
-0.101318 -9.371559e-06
-0.101068 -9.350908e-06
-0.100818 -9.327370e-06
-0.100568 -9.300954e-06
-0.100318 -9.271668e-06
-0.100068 -9.239525e-06
-0.099818 -9.204535e-06
-0.099568 -9.166711e-06
-0.099318 -9.126066e-06
-0.099068 -9.082614e-06
-0.098818 -9.036371e-06
-0.098568 -8.987351e-06
-0.098318 -8.935573e-06
-0.098068 -8.881052e-06
-0.097818 -8.823809e-06
-0.097568 -8.763861e-06
-0.097318 -8.701229e-06
-0.097068 -8.635934e-06
-0.096818 -8.567997e-06
-0.096568 -8.497442e-06
-0.096318 -8.424291e-06
-0.096068 -8.348568e-06
-0.095818 -8.270298e-06
-0.095568 -8.189507e-06
-0.095318 -8.106221e-06
-0.095068 -8.020467e-06
-0.094818 -7.932274e-06
-0.094568 -7.841669e-06
-0.094318 -7.748683e-06
-0.094068 -7.653345e-06
-0.093818 -7.555686e-06
-0.093568 -7.455737e-06
-0.093318 -7.353531e-06
-0.093068 -7.249101e-06
-0.092818 -7.142481e-06
-0.092568 -7.033703e-06
-0.092318 -6.922804e-06
-0.092068 -6.809819e-06
-0.091818 -6.694783e-06
-0.091568 -6.577734e-06
-0.091318 -6.458709e-06
-0.091068 -6.337745e-06
-0.090818 -6.214882e-06
-0.090568 -6.090158e-06
-0.090318 -5.963614e-06
-0.090068 -5.835288e-06
-0.089818 -5.705222e-06
-0.089568 -5.573458e-06
-0.089318 -5.440036e-06
-0.089068 -5.304999e-06
-0.088818 -5.168389e-06
-0.088568 -5.030251e-06
-0.088318 -4.890626e-06
-0.088068 -4.749561e-06
-0.087818 -4.607097e-06
-0.087568 -4.463282e-06
-0.087318 -4.318160e-06
-0.087068 -4.171776e-06
-0.086818 -4.024176e-06
-0.086568 -3.875408e-06
-0.086318 -3.725517e-06
-0.086068 -3.574551e-06
-0.085818 -3.422556e-06
-0.085568 -3.269581e-06
-0.085318 -3.115674e-06
-0.085068 -2.960882e-06
-0.084818 -2.805253e-06
-0.084568 -2.648838e-06
-0.084318 -2.491683e-06
-0.084068 -2.333839e-06
-0.083818 -2.175355e-06
-0.083568 -2.016280e-06
-0.083318 -1.856663e-06
-0.083068 -1.696555e-06
-0.082818 -1.536004e-06
-0.082568 -1.375062e-06
-0.082318 -1.213778e-06
-0.082068 -1.052202e-06
-0.081818 -8.903838e-07
-0.081568 -7.283746e-07
-0.081318 -5.662241e-07
-0.081068 -4.039826e-07
-0.080818 -2.417005e-07
-0.080568 -7.942792e-08
-0.080318 8.278489e-08
-0.080068 2.448877e-07
-0.079818 4.068305e-07
-0.079568 5.685632e-07
-0.079318 7.300359e-07
-0.079068 8.911986e-07
-0.078818 1.052002e-06
-0.078568 1.212396e-06
-0.078318 1.372331e-06
-0.078068 1.531759e-06
-0.077818 1.690629e-06
-0.077568 1.848894e-06
-0.077318 2.006504e-06
-0.077068 2.163412e-06
-0.076818 2.319568e-06
-0.076568 2.474926e-06
-0.076318 2.629436e-06
-0.076068 2.783053e-06
-0.075818 2.935728e-06
-0.075568 3.087416e-06
-0.075318 3.238069e-06
-0.075068 3.387642e-06
-0.074818 3.536089e-06
-0.074568 3.683365e-06
-0.074318 3.829424e-06
-0.074068 3.974222e-06
-0.073818 4.117715e-06
-0.073568 4.259859e-06
-0.073318 4.400612e-06
-0.073068 4.539929e-06
-0.072818 4.677769e-06
-0.072568 4.814090e-06
-0.072318 4.948850e-06
-0.072068 5.082009e-06
-0.071818 5.213526e-06
-0.071568 5.343361e-06
-0.071318 5.471476e-06
-0.071068 5.597831e-06
-0.070818 5.722388e-06
-0.070568 5.845109e-06
-0.070318 5.965958e-06
-0.070068 6.084898e-06
-0.069818 6.201894e-06
-0.069568 6.316909e-06
-0.069318 6.429910e-06
-0.069068 6.540863e-06
-0.068818 6.649734e-06
-0.068568 6.756491e-06
-0.068318 6.861102e-06
-0.068068 6.963535e-06
-0.067818 7.063761e-06
-0.067568 7.161748e-06
-0.067318 7.257469e-06
-0.067068 7.350894e-06
-0.066818 7.441996e-06
-0.066568 7.530748e-06
-0.066318 7.617123e-06
-0.066068 7.701097e-06
-0.065818 7.782644e-06
-0.065568 7.861740e-06
-0.065318 7.938363e-06
-0.065068 8.012489e-06
-0.064818 8.084098e-06
-0.064568 8.153167e-06
-0.064318 8.219678e-06
-0.064068 8.283611e-06
-0.063818 8.344948e-06
-0.063568 8.403670e-06
-0.063318 8.459761e-06
-0.063068 8.513206e-06
-0.062818 8.563988e-06
-0.062568 8.612094e-06
-0.062318 8.657509e-06
-0.062068 8.700222e-06
-0.061818 8.740221e-06
-0.061568 8.777494e-06
-0.061318 8.812032e-06
-0.061068 8.843824e-06
-0.060818 8.872864e-06
-0.060568 8.899142e-06
-0.060318 8.922653e-06
-0.060068 8.943390e-06
-0.059818 8.961349e-06
-0.059568 8.976525e-06
-0.059318 8.988916e-06
-0.059068 8.998518e-06
-0.058818 9.005330e-06
-0.058568 9.009352e-06
-0.058318 9.010583e-06
-0.058068 9.009025e-06
-0.057818 9.004680e-06
-0.057568 8.997549e-06
-0.057318 8.987638e-06
-0.057068 8.974951e-06
-0.056818 8.959492e-06
-0.056568 8.941267e-06
-0.056318 8.920285e-06
-0.056068 8.896553e-06
-0.055818 8.870079e-06
-0.055568 8.840874e-06
-0.055318 8.808947e-06
-0.055068 8.774310e-06
-0.054818 8.736975e-06
-0.054568 8.696954e-06
-0.054318 8.654262e-06
-0.054068 8.608914e-06
-0.053818 8.560923e-06
-0.053568 8.510308e-06
-0.053318 8.457084e-06
-0.053068 8.401269e-06
-0.052818 8.342882e-06
-0.052568 8.281942e-06
-0.052318 8.218470e-06
-0.052068 8.152486e-06
-0.051818 8.084012e-06
-0.051568 8.013071e-06
-0.051318 7.939685e-06
-0.051068 7.863878e-06
-0.050818 7.785676e-06
-0.050568 7.705103e-06
-0.050318 7.622185e-06
-0.050068 7.536950e-06
-0.049818 7.449425e-06
-0.049568 7.359638e-06
-0.049318 7.267618e-06
-0.049068 7.173395e-06
-0.048818 7.076998e-06
-0.048568 6.978459e-06
-0.048318 6.877809e-06
-0.048068 6.775081e-06
-0.047818 6.670307e-06
-0.047568 6.563520e-06
-0.047318 6.454755e-06
-0.047068 6.344046e-06
-0.046818 6.231429e-06
-0.046568 6.116938e-06
-0.046318 6.000612e-06
-0.046068 5.882485e-06
-0.045818 5.762596e-06
-0.045568 5.640983e-06
-0.045318 5.517684e-06
-0.045068 5.392738e-06
-0.044818 5.266185e-06
-0.044568 5.138064e-06
-0.044318 5.008416e-06
-0.044068 4.877282e-06
-0.043818 4.744702e-06
-0.043568 4.610719e-06
-0.043318 4.475375e-06
-0.043068 4.338712e-06
-0.042818 4.200773e-06
-0.042568 4.061602e-06
-0.042318 3.921241e-06
-0.042068 3.779736e-06
-0.041818 3.637129e-06
-0.041568 3.493467e-06
-0.041318 3.348793e-06
-0.041068 3.203154e-06
-0.040818 3.056593e-06
-0.040568 2.909158e-06
-0.040318 2.760895e-06
-0.040068 2.611849e-06
-0.039818 2.462066e-06
-0.039568 2.311594e-06
-0.039318 2.160480e-06
-0.039068 2.008770e-06
-0.038818 1.856512e-06
-0.038568 1.703752e-06
-0.038318 1.550539e-06
-0.038068 1.396920e-06
-0.037818 1.242942e-06
-0.037568 1.088654e-06
-0.037318 9.341030e-07
-0.037068 7.793370e-07
-0.036818 6.244041e-07
-0.036568 4.693520e-07
-0.036318 3.142289e-07
-0.036068 1.590827e-07
-0.035818 3.961343e-09
-0.035568 -1.510873e-07
-0.035318 -3.060152e-07
-0.035068 -4.607748e-07
-0.034818 -6.153181e-07
-0.034568 -7.695976e-07
-0.034318 -9.235657e-07
-0.034068 -1.077175e-06
-0.033818 -1.230378e-06
-0.033568 -1.383128e-06
-0.033318 -1.535378e-06
-0.033068 -1.687081e-06
-0.032818 -1.838190e-06
-0.032568 -1.988660e-06
-0.032318 -2.138443e-06
-0.032068 -2.287494e-06
-0.031818 -2.435767e-06
-0.031568 -2.583217e-06
-0.031318 -2.729798e-06
-0.031068 -2.875467e-06
-0.030818 -3.020177e-06
-0.030568 -3.163885e-06
-0.030318 -3.306548e-06
-0.030068 -3.448121e-06
-0.029818 -3.588561e-06
-0.029568 -3.727825e-06
-0.029318 -3.865872e-06
-0.029068 -4.002658e-06
-0.028818 -4.138142e-06
-0.028568 -4.272284e-06
-0.028318 -4.405042e-06
-0.028068 -4.536375e-06
-0.027818 -4.666245e-06
-0.027568 -4.794611e-06
-0.027318 -4.921435e-06
-0.027068 -5.046678e-06
-0.026818 -5.170302e-06
-0.026568 -5.292270e-06
-0.026318 -5.412545e-06
-0.026068 -5.531091e-06
-0.025818 -5.647872e-06
-0.025568 -5.762852e-06
-0.025318 -5.875997e-06
-0.025068 -5.987273e-06
-0.024818 -6.096647e-06
-0.024568 -6.204085e-06
-0.024318 -6.309555e-06
-0.024068 -6.413026e-06
-0.023818 -6.514467e-06
-0.023568 -6.613847e-06
-0.023318 -6.711136e-06
-0.023068 -6.806306e-06
-0.022818 -6.899328e-06
-0.022568 -6.990175e-06
-0.022318 -7.078819e-06
-0.022068 -7.165233e-06
-0.021818 -7.249394e-06
-0.021568 -7.331275e-06
-0.021318 -7.410852e-06
-0.021068 -7.488102e-06
-0.020818 -7.563002e-06
-0.020568 -7.635530e-06
-0.020318 -7.705665e-06
-0.020068 -7.773386e-06
-0.019818 -7.838674e-06
-0.019568 -7.901509e-06
-0.019318 -7.961873e-06
-0.019068 -8.019750e-06
-0.018818 -8.075121e-06
-0.018568 -8.127971e-06
-0.018318 -8.178285e-06
-0.018068 -8.226049e-06
-0.017818 -8.271249e-06
-0.017568 -8.313872e-06
-0.017318 -8.353907e-06
-0.017068 -8.391342e-06
-0.016818 -8.426167e-06
-0.016568 -8.458372e-06
-0.016318 -8.487949e-06
-0.016068 -8.514890e-06
-0.015818 -8.539187e-06
-0.015568 -8.560835e-06
-0.015318 -8.579828e-06
-0.015068 -8.596161e-06
-0.014818 -8.609831e-06
-0.014568 -8.620834e-06
-0.014318 -8.629169e-06
-0.014068 -8.634834e-06
-0.013818 -8.637828e-06
-0.013568 -8.638153e-06
-0.013318 -8.635808e-06
-0.013068 -8.630797e-06
-0.012818 -8.623121e-06
-0.012568 -8.612785e-06
-0.012318 -8.599793e-06
-0.012068 -8.584150e-06
-0.011818 -8.565862e-06
-0.011568 -8.544936e-06
-0.011318 -8.521380e-06
-0.011068 -8.495202e-06
-0.010818 -8.466412e-06
-0.010568 -8.435019e-06
-0.010318 -8.401035e-06
-0.010068 -8.364471e-06
-0.009818 -8.325340e-06
-0.009568 -8.283654e-06
-0.009318 -8.239429e-06
-0.009068 -8.192679e-06
-0.008818 -8.143419e-06
-0.008568 -8.091666e-06
-0.008318 -8.037437e-06
-0.008068 -7.980749e-06
-0.007818 -7.921622e-06
-0.007568 -7.860075e-06
-0.007318 -7.796128e-06
-0.007068 -7.729802e-06
-0.006818 -7.661118e-06
-0.006568 -7.590098e-06
-0.006318 -7.516766e-06
-0.006068 -7.441146e-06
-0.005818 -7.363261e-06
-0.005568 -7.283137e-06
-0.005318 -7.200800e-06
-0.005068 -7.116275e-06
-0.004818 -7.029591e-06
-0.004568 -6.940775e-06
-0.004318 -6.849854e-06
-0.004068 -6.756859e-06
-0.003818 -6.661819e-06
-0.003568 -6.564764e-06
-0.003318 -6.465724e-06
-0.003068 -6.364733e-06
-0.002818 -6.261821e-06
-0.002568 -6.157021e-06
-0.002318 -6.050366e-06
-0.002068 -5.941891e-06
-0.001818 -5.831629e-06
-0.001568 -5.719615e-06
-0.001318 -5.605885e-06
-0.001068 -5.490474e-06
-0.000818 -5.373419e-06
-0.000568 -5.254757e-06
-0.000318 -5.134525e-06
-0.000068 -5.012761e-06
0.000182 -4.889503e-06
0.000432 -4.764790e-06
0.000682 -4.638661e-06
0.000932 -4.511156e-06
0.001182 -4.382314e-06
0.001432 -4.252176e-06
0.001682 -4.120783e-06
0.001932 -3.988176e-06
0.002182 -3.854395e-06
0.002432 -3.719484e-06
0.002682 -3.583484e-06
0.002932 -3.446437e-06
0.003182 -3.308387e-06
0.003432 -3.169377e-06
0.003682 -3.029449e-06
0.003932 -2.888647e-06
0.004182 -2.747015e-06
0.004432 -2.604598e-06
0.004682 -2.461439e-06
0.004932 -2.317583e-06
0.005182 -2.173075e-06
0.005432 -2.027960e-06
0.005682 -1.882282e-06
0.005932 -1.736086e-06
0.006182 -1.589419e-06
0.006432 -1.442326e-06
0.006682 -1.294852e-06
0.006932 -1.147042e-06
0.007182 -9.989430e-07
0.007432 -8.506004e-07
0.007682 -7.020600e-07
0.007932 -5.533677e-07
0.008182 -4.045695e-07
0.008432 -2.557113e-07
0.008682 -1.068391e-07
0.008932 4.200121e-08
0.009182 1.907638e-07
0.009432 3.394027e-07
0.009682 4.878722e-07
0.009932 6.361265e-07
0.010182 7.841201e-07
0.010432 9.318074e-07
0.010682 1.079143e-06
0.010932 1.226082e-06
0.011182 1.372578e-06
0.011432 1.518587e-06
0.011682 1.664065e-06
0.011932 1.808966e-06
0.012182 1.953245e-06
0.012432 2.096860e-06
0.012682 2.239765e-06
0.012932 2.381918e-06
0.013182 2.523274e-06
0.013432 2.663790e-06
0.013682 2.803423e-06
0.013932 2.942131e-06
0.014182 3.079872e-06
0.014432 3.216602e-06
0.014682 3.352282e-06
0.014932 3.486868e-06
0.015182 3.620320e-06
0.015432 3.752598e-06
0.015682 3.883661e-06
0.015932 4.013469e-06
0.016182 4.141984e-06
0.016432 4.269164e-06
0.016682 4.394974e-06
0.016932 4.519373e-06
0.017182 4.642324e-06
0.017432 4.763790e-06
0.017682 4.883734e-06
0.017932 5.002120e-06
0.018182 5.118913e-06
0.018432 5.234075e-06
0.018682 5.347574e-06
0.018932 5.459374e-06
0.019182 5.569443e-06
0.019432 5.677746e-06
0.019682 5.784251e-06
0.019932 5.888926e-06
0.020182 5.991740e-06
0.020432 6.092661e-06
0.020682 6.191660e-06
0.020932 6.288706e-06
0.021182 6.383771e-06
0.021432 6.476827e-06
0.021682 6.567844e-06
0.021932 6.656797e-06
0.022182 6.743659e-06
0.022432 6.828403e-06
0.022682 6.911006e-06
0.022932 6.991441e-06
0.023182 7.069685e-06
0.023432 7.145716e-06
0.023682 7.219510e-06
0.023932 7.291045e-06
0.024182 7.360302e-06
0.024432 7.427259e-06
0.024682 7.491896e-06
0.024932 7.554196e-06
0.025182 7.614139e-06
0.025432 7.671708e-06
0.025682 7.726886e-06
0.025932 7.779658e-06
0.026182 7.830009e-06
0.026432 7.877923e-06
0.026682 7.923387e-06
0.026932 7.966388e-06
0.027182 8.006914e-06
0.027432 8.044953e-06
0.027682 8.080495e-06
0.027932 8.113530e-06
0.028182 8.144049e-06
0.028432 8.172043e-06
0.028682 8.197505e-06
0.028932 8.220429e-06
0.029182 8.240807e-06
0.029432 8.258636e-06
0.029682 8.273910e-06
0.029932 8.286626e-06
0.030182 8.296781e-06
0.030432 8.304373e-06
0.030682 8.309402e-06
0.030932 8.311865e-06
0.031182 8.311765e-06
0.031432 8.309101e-06
0.031682 8.303876e-06
0.031932 8.296092e-06
0.032182 8.285754e-06
0.032432 8.272865e-06
0.032682 8.257430e-06
0.032932 8.239455e-06
0.033182 8.218947e-06
0.033432 8.195913e-06
0.033682 8.170361e-06
0.033932 8.142301e-06
0.034182 8.111741e-06
0.034432 8.078694e-06
0.034682 8.043168e-06
0.034932 8.005178e-06
0.035182 7.964734e-06
0.035432 7.921852e-06
0.035682 7.876545e-06
0.035932 7.828828e-06
0.036182 7.778717e-06
0.036432 7.726228e-06
0.036682 7.671379e-06
0.036932 7.614187e-06
0.037182 7.554671e-06
0.037432 7.492851e-06
0.037682 7.428745e-06
0.037932 7.362376e-06
0.038182 7.293764e-06
0.038432 7.222932e-06
0.038682 7.149902e-06
0.038932 7.074698e-06
0.039182 6.997343e-06
0.039432 6.917863e-06
0.039682 6.836283e-06
0.039932 6.752628e-06
0.040182 6.666926e-06
0.040432 6.579204e-06
0.040682 6.489490e-06
0.040932 6.397812e-06
0.041182 6.304198e-06
0.041432 6.208680e-06
0.041682 6.111287e-06
0.041932 6.012049e-06
0.042182 5.910999e-06
0.042432 5.808167e-06
0.042682 5.703587e-06
0.042932 5.597292e-06
0.043182 5.489314e-06
0.043432 5.379688e-06
0.043682 5.268448e-06
0.043932 5.155630e-06
0.044182 5.041268e-06
0.044432 4.925398e-06
0.044682 4.808057e-06
0.044932 4.689282e-06
0.045182 4.569110e-06
0.045432 4.447577e-06
0.045682 4.324723e-06
0.045932 4.200586e-06
0.046182 4.075203e-06
0.046432 3.948616e-06
0.046682 3.820862e-06
0.046932 3.691983e-06
0.047182 3.562017e-06
0.047432 3.431006e-06
0.047682 3.298989e-06
0.047932 3.166010e-06
0.048182 3.032108e-06
0.048432 2.897325e-06
0.048682 2.761703e-06
0.048932 2.625284e-06
0.049182 2.488111e-06
0.049432 2.350226e-06
0.049682 2.211672e-06
0.049932 2.072492e-06
0.050182 1.932729e-06
0.050432 1.792426e-06
0.050682 1.651626e-06
0.050932 1.510374e-06
0.051182 1.368712e-06
0.051432 1.226686e-06
0.051682 1.084337e-06
0.051932 9.417112e-07
0.052182 7.988518e-07
0.052432 6.558029e-07
0.052682 5.126087e-07
0.052932 3.693133e-07
0.053182 2.259609e-07
0.053432 8.259566e-08
0.053682 -6.073830e-08
0.053932 -2.039969e-07
0.054182 -3.471359e-07
0.054432 -4.901115e-07
0.054682 -6.328797e-07
0.054932 -7.753965e-07
0.055182 -9.176182e-07
0.055432 -1.059501e-06
0.055682 -1.201002e-06
0.055932 -1.342077e-06
0.056182 -1.482683e-06
0.056432 -1.622777e-06
0.056682 -1.762316e-06
0.056932 -1.901258e-06
0.057182 -2.039559e-06
0.057432 -2.177178e-06
0.057682 -2.314072e-06
0.057932 -2.450199e-06
0.058182 -2.585519e-06
0.058432 -2.719989e-06
0.058682 -2.853569e-06
0.058932 -2.986217e-06
0.059182 -3.117894e-06
0.059432 -3.248560e-06
0.059682 -3.378173e-06
0.059932 -3.506696e-06
0.060182 -3.634088e-06
0.060432 -3.760312e-06
0.060682 -3.885328e-06
0.060932 -4.009099e-06
0.061182 -4.131587e-06
0.061432 -4.252755e-06
0.061682 -4.372566e-06
0.061932 -4.490984e-06
0.062182 -4.607973e-06
0.062432 -4.723497e-06
0.062682 -4.837522e-06
0.062932 -4.950013e-06
0.063182 -5.060936e-06
0.063432 -5.170257e-06
0.063682 -5.277944e-06
0.063932 -5.383965e-06
0.064182 -5.488286e-06
0.064432 -5.590877e-06
0.064682 -5.691706e-06
0.064932 -5.790745e-06
0.065182 -5.887961e-06
0.065432 -5.983328e-06
0.065682 -6.076815e-06
0.065932 -6.168395e-06
0.066182 -6.258040e-06
0.066432 -6.345725e-06
0.066682 -6.431421e-06
0.066932 -6.515105e-06
0.067182 -6.596750e-06
0.067432 -6.676333e-06
0.067682 -6.753829e-06
0.067932 -6.829217e-06
0.068182 -6.902473e-06
0.068432 -6.973576e-06
0.068682 -7.042505e-06
0.068932 -7.109239e-06
0.069182 -7.173759e-06
0.069432 -7.236046e-06
0.069682 -7.296081e-06
0.069932 -7.353848e-06
0.070182 -7.409328e-06
0.070432 -7.462506e-06
0.070682 -7.513367e-06
0.070932 -7.561895e-06
0.071182 -7.608077e-06
0.071432 -7.651899e-06
0.071682 -7.693350e-06
0.071932 -7.732416e-06
0.072182 -7.769087e-06
0.072432 -7.803353e-06
0.072682 -7.835203e-06
0.072932 -7.864630e-06
0.073182 -7.891625e-06
0.073432 -7.916180e-06
0.073682 -7.938290e-06
0.073932 -7.957948e-06
0.074182 -7.975149e-06
0.074432 -7.989888e-06
0.074682 -8.002163e-06
0.074932 -8.011971e-06
0.075182 -8.019308e-06
0.075432 -8.024175e-06
0.075682 -8.026570e-06
0.075932 -8.026494e-06
0.076182 -8.023948e-06
0.076432 -8.018933e-06
0.076682 -8.011452e-06
0.076932 -8.001508e-06
0.077182 -7.989106e-06
0.077432 -7.974249e-06
0.077682 -7.956944e-06
0.077932 -7.937197e-06
0.078182 -7.915015e-06
0.078432 -7.890405e-06
0.078682 -7.863376e-06
0.078932 -7.833938e-06
0.079182 -7.802100e-06
0.079432 -7.767872e-06
0.079682 -7.731268e-06
0.079932 -7.692298e-06
0.080182 -7.650975e-06
0.080432 -7.607314e-06
0.080682 -7.561328e-06
0.080932 -7.513032e-06
0.081182 -7.462443e-06
0.081432 -7.409576e-06
0.081682 -7.354449e-06
0.081932 -7.297080e-06
0.082182 -7.237487e-06
0.082432 -7.175689e-06
0.082682 -7.111706e-06
0.082932 -7.045559e-06
0.083182 -6.977269e-06
0.083432 -6.906857e-06
0.083682 -6.834347e-06
0.083932 -6.759760e-06
0.084182 -6.683122e-06
0.084432 -6.604455e-06
0.084682 -6.523786e-06
0.084932 -6.441140e-06
0.085182 -6.356543e-06
0.085432 -6.270021e-06
0.085682 -6.181602e-06
0.085932 -6.091314e-06
0.086182 -5.999186e-06
0.086432 -5.905246e-06
0.086682 -5.809524e-06
0.086932 -5.712050e-06
0.087182 -5.612854e-06
0.087432 -5.511969e-06
0.087682 -5.409425e-06
0.087932 -5.305254e-06
0.088182 -5.199490e-06
0.088432 -5.092166e-06
0.088682 -4.983314e-06
0.088932 -4.872969e-06
0.089182 -4.761166e-06
0.089432 -4.647939e-06
0.089682 -4.533324e-06
0.089932 -4.417357e-06
0.090182 -4.300073e-06
0.090432 -4.181509e-06
0.090682 -4.061703e-06
0.090932 -3.940691e-06
0.091182 -3.818511e-06
0.091432 -3.695201e-06
0.091682 -3.570799e-06
0.091932 -3.445345e-06
0.092182 -3.318876e-06
0.092432 -3.191433e-06
0.092682 -3.063054e-06
0.092932 -2.933780e-06
0.093182 -2.803651e-06
0.093432 -2.672706e-06
0.093682 -2.540987e-06
0.093932 -2.408535e-06
0.094182 -2.275389e-06
0.094432 -2.141592e-06
0.094682 -2.007185e-06
0.094932 -1.872209e-06
0.095182 -1.736706e-06
0.095432 -1.600718e-06
0.095682 -1.464287e-06
0.095932 -1.327454e-06
0.096182 -1.190263e-06
0.096432 -1.052755e-06
0.096682 -9.149728e-07
0.096932 -7.769588e-07
0.097182 -6.387555e-07
0.097432 -5.004054e-07
0.097682 -3.619512e-07
0.097932 -2.234353e-07
0.098182 -8.490032e-08
0.098432 5.361110e-08
0.098682 1.920564e-07
0.098932 3.303932e-07
0.099182 4.685789e-07
0.099432 6.065711e-07
0.099682 7.443276e-07
0.099932 8.818060e-07
0.100182 1.018964e-06
0.100432 1.155760e-06
0.100682 1.292152e-06
0.100932 1.428099e-06
0.101182 1.563557e-06
0.101432 1.698487e-06
0.101682 1.832847e-06
0.101932 1.966596e-06
0.102182 2.099692e-06
0.102432 2.232096e-06
0.102682 2.363767e-06
0.102932 2.494664e-06
0.103182 2.624748e-06
0.103432 2.753980e-06
0.103682 2.882319e-06
0.103932 3.009726e-06
0.104182 3.136164e-06
0.104432 3.261592e-06
0.104682 3.385974e-06
0.104932 3.509272e-06
0.105182 3.631447e-06
0.105432 3.752463e-06
0.105682 3.872283e-06
0.105932 3.990870e-06
0.106182 4.108190e-06
0.106432 4.224205e-06
0.106682 4.338881e-06
0.106932 4.452184e-06
0.107182 4.564078e-06
0.107432 4.674531e-06
0.107682 4.783508e-06
0.107932 4.890977e-06
0.108182 4.996905e-06
0.108432 5.101260e-06
0.108682 5.204011e-06
0.108932 5.305127e-06
0.109182 5.404577e-06
0.109432 5.502332e-06
0.109682 5.598361e-06
0.109932 5.692637e-06
0.110182 5.785130e-06
0.110432 5.875814e-06
0.110682 5.964661e-06
0.110932 6.051643e-06
0.111182 6.136736e-06
0.111432 6.219914e-06
0.111682 6.301151e-06
0.111932 6.380424e-06
0.112182 6.457710e-06
0.112432 6.532984e-06
0.112682 6.606224e-06
0.112932 6.677410e-06
0.113182 6.746519e-06
0.113432 6.813532e-06
0.113682 6.878428e-06
0.113932 6.941188e-06
0.114182 7.001794e-06
0.114432 7.060227e-06
0.114682 7.116472e-06
0.114932 7.170510e-06
0.115182 7.222328e-06
0.115432 7.271908e-06
0.115682 7.319237e-06
0.115932 7.364302e-06
0.116182 7.407088e-06
0.116432 7.447585e-06
0.116682 7.485779e-06
0.116932 7.521661e-06
0.117182 7.555220e-06
0.117432 7.586447e-06
0.117682 7.615332e-06
0.117932 7.641869e-06
0.118182 7.666048e-06
0.118432 7.687865e-06
0.118682 7.707313e-06
0.118932 7.724386e-06
0.119182 7.739081e-06
0.119432 7.751394e-06
0.119682 7.761322e-06
0.119932 7.768863e-06
0.120182 7.774014e-06
0.120432 7.776777e-06
0.120682 7.777149e-06
0.120932 7.775133e-06
0.121182 7.770730e-06
0.121432 7.763942e-06
0.121682 7.754771e-06
0.121932 7.743221e-06
0.122182 7.729298e-06
0.122432 7.713005e-06
0.122682 7.694350e-06
0.122932 7.673337e-06
0.123182 7.649975e-06
0.123432 7.624272e-06
0.123682 7.596236e-06
0.123932 7.565876e-06
0.124182 7.533204e-06
0.124432 7.498229e-06
0.124682 7.460963e-06
0.124932 7.421419e-06
0.125182 7.379609e-06
0.125432 7.335547e-06
0.125682 7.289248e-06
0.125932 7.240725e-06
0.126182 7.189996e-06
0.126432 7.137076e-06
0.126682 7.081982e-06
0.126932 7.024732e-06
0.127182 6.965345e-06
0.127432 6.903838e-06
0.127682 6.840233e-06
0.127932 6.774548e-06
0.128182 6.706806e-06
0.128432 6.637027e-06
0.128682 6.565234e-06
0.128932 6.491448e-06
0.129182 6.415695e-06
0.129432 6.337997e-06
0.129682 6.258379e-06
0.129932 6.176866e-06
0.130182 6.093485e-06
0.130432 6.008260e-06
0.130682 5.921219e-06
0.130932 5.832389e-06
0.131182 5.741798e-06
0.131432 5.649475e-06
0.131682 5.555448e-06
0.131932 5.459746e-06
0.132182 5.362401e-06
0.132432 5.263441e-06
0.132682 5.162899e-06
0.132932 5.060805e-06
0.133182 4.957191e-06
0.133432 4.852090e-06
0.133682 4.745535e-06
0.133932 4.637558e-06
0.134182 4.528193e-06
0.134432 4.417474e-06
0.134682 4.305435e-06
0.134932 4.192113e-06
0.135182 4.077540e-06
0.135432 3.961754e-06
0.135682 3.844791e-06
0.135932 3.726685e-06
0.136182 3.607475e-06
0.136432 3.487196e-06
0.136682 3.365887e-06
0.136932 3.243584e-06
0.137182 3.120326e-06
0.137432 2.996151e-06
0.137682 2.871097e-06
0.137932 2.745202e-06
0.138182 2.618507e-06
0.138432 2.491049e-06
0.138682 2.362868e-06
0.138932 2.234004e-06
0.139182 2.104497e-06
0.139432 1.974386e-06
0.139682 1.843711e-06
0.139932 1.712514e-06
0.140182 1.580833e-06
0.140432 1.448710e-06
0.140682 1.316186e-06
0.140932 1.183301e-06
0.141182 1.050096e-06
0.141432 9.166115e-07
0.141682 7.828894e-07
0.141932 6.489704e-07
0.142182 5.148957e-07
0.142432 3.807064e-07
0.142682 2.464437e-07
0.142932 1.121488e-07
0.143182 -2.213710e-08
0.143432 -1.563728e-07
0.143682 -2.905173e-07
0.143932 -4.245293e-07
0.144182 -5.583678e-07
0.144432 -6.919920e-07
0.144682 -8.253608e-07
0.144932 -9.584334e-07
0.145182 -1.091169e-06
0.145432 -1.223528e-06
0.145682 -1.355468e-06
0.145932 -1.486950e-06
0.146182 -1.617934e-06
0.146432 -1.748380e-06
0.146682 -1.878248e-06
0.146932 -2.007497e-06
0.147182 -2.136090e-06
0.147432 -2.263986e-06
0.147682 -2.391147e-06
0.147932 -2.517533e-06
0.148182 -2.643107e-06
0.148432 -2.767830e-06
0.148682 -2.891665e-06
0.148932 -3.014573e-06
0.149182 -3.136517e-06
0.149432 -3.257460e-06
0.149682 -3.377365e-06
0.149932 -3.496197e-06
0.150182 -3.613918e-06
0.150432 -3.730494e-06
0.150682 -3.845888e-06
0.150932 -3.960066e-06
0.151182 -4.072994e-06
0.151432 -4.184636e-06
0.151682 -4.294960e-06
0.151932 -4.403932e-06
0.152182 -4.511518e-06
0.152432 -4.617687e-06
0.152682 -4.722406e-06
0.152932 -4.825644e-06
0.153182 -4.927369e-06
0.153432 -5.027552e-06
0.153682 -5.126160e-06
0.153932 -5.223166e-06
0.154182 -5.318540e-06
0.154432 -5.412252e-06
0.154682 -5.504276e-06
0.154932 -5.594582e-06
0.155182 -5.683145e-06
0.155432 -5.769937e-06
0.155682 -5.854933e-06
0.155932 -5.938107e-06
0.156182 -6.019434e-06
0.156432 -6.098889e-06
0.156682 -6.176450e-06
0.156932 -6.252093e-06
0.157182 -6.325795e-06
0.157432 -6.397535e-06
0.157682 -6.467291e-06
0.157932 -6.535042e-06
0.158182 -6.600768e-06
0.158432 -6.664450e-06
0.158682 -6.726069e-06
0.158932 -6.785606e-06
0.159182 -6.843045e-06
0.159432 -6.898368e-06
0.159682 -6.951559e-06
0.159932 -7.002602e-06
0.160182 -7.051483e-06
0.160432 -7.098186e-06
0.160682 -7.142700e-06
0.160932 -7.185009e-06
0.161182 -7.225104e-06
0.161432 -7.262970e-06
0.161682 -7.298599e-06
0.161932 -7.331979e-06
0.162182 -7.363102e-06
0.162432 -7.391958e-06
0.162682 -7.418539e-06
0.162932 -7.442838e-06
0.163182 -7.464848e-06
0.163432 -7.484563e-06
0.163682 -7.501978e-06
0.163932 -7.517088e-06
0.164182 -7.529889e-06
0.164432 -7.540379e-06
0.164682 -7.548554e-06
0.164932 -7.554413e-06
0.165182 -7.557955e-06
0.165432 -7.559179e-06
0.165682 -7.558086e-06
0.165932 -7.554677e-06
0.166182 -7.548954e-06
0.166432 -7.540919e-06
0.166682 -7.530576e-06
0.166932 -7.517927e-06
0.167182 -7.502979e-06
0.167432 -7.485736e-06
0.167682 -7.466204e-06
0.167932 -7.444390e-06
0.168182 -7.420301e-06
0.168432 -7.393946e-06
0.168682 -7.365333e-06
0.168932 -7.334471e-06
0.169182 -7.301372e-06
0.169432 -7.266045e-06
0.169682 -7.228502e-06
0.169932 -7.188756e-06
0.170182 -7.146819e-06
0.170432 -7.102705e-06
0.170682 -7.056428e-06
0.170932 -7.008003e-06
0.171182 -6.957445e-06
0.171432 -6.904771e-06
0.171682 -6.849997e-06
0.171932 -6.793141e-06
0.172182 -6.734221e-06
0.172432 -6.673255e-06
0.172682 -6.610263e-06
0.172932 -6.545265e-06
0.173182 -6.478281e-06
0.173432 -6.409333e-06
0.173682 -6.338441e-06
0.173932 -6.265629e-06
0.174182 -6.190920e-06
0.174432 -6.114336e-06
0.174682 -6.035902e-06
0.174932 -5.955643e-06
0.175182 -5.873583e-06
0.175432 -5.789748e-06
0.175682 -5.704165e-06
0.175932 -5.616861e-06
0.176182 -5.527861e-06
0.176432 -5.437195e-06
0.176682 -5.344891e-06
0.176932 -5.250977e-06
0.177182 -5.155482e-06
0.177432 -5.058437e-06
0.177682 -4.959871e-06
0.177932 -4.859816e-06
0.178182 -4.758302e-06
0.178432 -4.655360e-06
0.178682 -4.551023e-06
0.178932 -4.445323e-06
0.179182 -4.338294e-06
0.179432 -4.229967e-06
0.179682 -4.120377e-06
0.179932 -4.009557e-06
0.180182 -3.897542e-06
0.180432 -3.784367e-06
0.180682 -3.670066e-06
0.180932 -3.554675e-06
0.181182 -3.438229e-06
0.181432 -3.320765e-06
0.181682 -3.202319e-06
0.181932 -3.082927e-06
0.182182 -2.962626e-06
0.182432 -2.841453e-06
0.182682 -2.719446e-06
0.182932 -2.596642e-06
0.183182 -2.473079e-06
0.183432 -2.348795e-06
0.183682 -2.223828e-06
0.183932 -2.098218e-06
0.184182 -1.972001e-06
0.184432 -1.845218e-06
0.184682 -1.717907e-06
0.184932 -1.590107e-06
0.185182 -1.461857e-06
0.185432 -1.333198e-06
0.185682 -1.204168e-06
0.185932 -1.074807e-06
0.186182 -9.451553e-07
0.186432 -8.152516e-07
0.186682 -6.851363e-07
0.186932 -5.548493e-07
0.187182 -4.244303e-07