0.000000 -4.979235e-06
0.000250 -4.855576e-06
0.000500 -4.730472e-06
0.000750 -4.603963e-06
0.001000 -4.476089e-06
0.001250 -4.346889e-06
0.001500 -4.216404e-06
0.001750 -4.084675e-06
0.002000 -3.951743e-06
0.002250 -3.817650e-06
0.002500 -3.682437e-06
0.002750 -3.546147e-06
0.003000 -3.408822e-06
0.003250 -3.270505e-06
0.003500 -3.131239e-06
0.003750 -2.991068e-06
0.004000 -2.850035e-06
0.004250 -2.708185e-06
0.004500 -2.565560e-06
0.004750 -2.422207e-06
0.005000 -2.278168e-06
0.005250 -2.133490e-06
0.005500 -1.988216e-06
0.005750 -1.842392e-06
0.006000 -1.696064e-06
0.006250 -1.549276e-06
0.006500 -1.402073e-06
0.006750 -1.254503e-06
0.007000 -1.106610e-06
0.007250 -9.584397e-07
0.007500 -8.100385e-07
0.007750 -6.614521e-07
0.008000 -5.127263e-07
0.008250 -3.639072e-07
0.008500 -2.150406e-07
0.008750 -6.617254e-08
0.009000 8.265110e-08
0.009250 2.313844e-07
0.009500 3.799816e-07
0.009750 5.283969e-07
0.010000 6.765845e-07
0.010250 8.244989e-07
0.010500 9.720947e-07
0.010750 1.119326e-06
0.011000 1.266149e-06
0.011250 1.412516e-06
0.011500 1.558385e-06
0.011750 1.703709e-06
0.012000 1.848445e-06
0.012250 1.992547e-06
0.012500 2.135972e-06
0.012750 2.278676e-06
0.013000 2.420615e-06
0.013250 2.561746e-06
0.013500 2.702025e-06
0.013750 2.841410e-06
0.014000 2.979858e-06
0.014250 3.117327e-06
0.014500 3.253775e-06
0.014750 3.389159e-06
0.015000 3.523440e-06
0.015250 3.656575e-06
0.015500 3.788525e-06
0.015750 3.919249e-06
0.016000 4.048708e-06
0.016250 4.176862e-06
0.016500 4.303672e-06
0.016750 4.429100e-06
0.017000 4.553107e-06
0.017250 4.675656e-06
0.017500 4.796710e-06
0.017750 4.916232e-06
0.018000 5.034186e-06
0.018250 5.150537e-06
0.018500 5.265249e-06
0.018750 5.378287e-06
0.019000 5.489617e-06
0.019250 5.599206e-06
0.019500 5.707021e-06
0.019750 5.813030e-06
0.020000 5.917199e-06
0.020250 6.019499e-06
0.020500 6.119898e-06
0.020750 6.218367e-06
0.021000 6.314875e-06
0.021250 6.409394e-06
0.021500 6.501895e-06
0.021750 6.592351e-06
0.022000 6.680736e-06
0.022250 6.767021e-06
0.022500 6.851183e-06
0.022750 6.933196e-06
0.023000 7.013035e-06
0.023250 7.090676e-06
0.023500 7.166098e-06
0.023750 7.239277e-06
0.024000 7.310193e-06
0.024250 7.378823e-06
0.024500 7.445148e-06
0.024750 7.509149e-06
0.025000 7.570806e-06
0.025250 7.630102e-06
0.025500 7.687020e-06
0.025750 7.741543e-06
0.026000 7.793655e-06
0.026250 7.843341e-06
0.026500 7.890587e-06
0.026750 7.935379e-06
0.027000 7.977705e-06
0.027250 8.017553e-06
0.027500 8.054911e-06
0.027750 8.089769e-06
0.028000 8.122118e-06
0.028250 8.151947e-06
0.028500 8.179251e-06
0.028750 8.204020e-06
0.029000 8.226249e-06
0.029250 8.245931e-06
0.029500 8.263062e-06
0.029750 8.277638e-06
0.030000 8.289655e-06
0.030250 8.299110e-06
0.030500 8.306002e-06
0.030750 8.310329e-06
0.031000 8.312092e-06
0.031250 8.311291e-06
0.031500 8.307928e-06
0.031750 8.302003e-06
0.032000 8.293522e-06
0.032250 8.282486e-06
0.032500 8.268900e-06
0.032750 8.252771e-06
0.033000 8.234103e-06
0.033250 8.212905e-06
0.033500 8.189182e-06
0.033750 8.162944e-06
0.034000 8.134200e-06
0.034250 8.102960e-06
0.034500 8.069234e-06
0.034750 8.033034e-06
0.035000 7.994372e-06
0.035250 7.953261e-06
0.035500 7.909715e-06
0.035750 7.863748e-06
0.036000 7.815375e-06
0.036250 7.764613e-06
0.036500 7.711478e-06
0.036750 7.655987e-06
0.037000 7.598158e-06
0.037250 7.538011e-06
0.037500 7.475564e-06
0.037750 7.410838e-06
0.038000 7.343854e-06
0.038250 7.274633e-06
0.038500 7.203198e-06
0.038750 7.129572e-06
0.039000 7.053778e-06
0.039250 6.975840e-06
0.039500 6.895784e-06
0.039750 6.813634e-06
0.040000 6.729418e-06
0.040250 6.643161e-06
0.040500 6.554892e-06
0.040750 6.464638e-06
0.041000 6.372428e-06
0.041250 6.278292e-06
0.041500 6.182258e-06
0.041750 6.084358e-06
0.042000 5.984622e-06
0.042250 5.883082e-06
0.042500 5.779769e-06
0.042750 5.674717e-06
0.043000 5.567959e-06
0.043250 5.459528e-06
0.043500 5.349457e-06
0.043750 5.237783e-06
0.044000 5.124539e-06
0.044250 5.009762e-06
0.044500 4.893487e-06
0.044750 4.775750e-06
0.045000 4.656590e-06
0.045250 4.536042e-06
0.045500 4.414144e-06
0.045750 4.290936e-06
0.046000 4.166455e-06
0.046250 4.040739e-06
0.046500 3.913829e-06
0.046750 3.785764e-06
0.047000 3.656584e-06
0.047250 3.526328e-06
0.047500 3.395038e-06
0.047750 3.262755e-06
0.048000 3.129519e-06
0.048250 2.995372e-06
0.048500 2.860356e-06
0.048750 2.724512e-06
0.049000 2.587883e-06
0.049250 2.450512e-06
0.049500 2.312440e-06
0.049750 2.173710e-06
0.050000 2.034367e-06
0.050250 1.894452e-06
0.050500 1.754008e-06
0.050750 1.613081e-06
0.051000 1.471712e-06
0.051250 1.329947e-06
0.051500 1.187828e-06
0.051750 1.045399e-06
0.052000 9.027050e-07
0.052250 7.597894e-07
0.052500 6.166964e-07
0.052750 4.734702e-07
0.053000 3.301548e-07
0.053250 1.867946e-07
0.053500 4.343349e-08
0.053750 -9.988425e-08
0.054000 -2.431145e-07
0.054250 -3.862133e-07
0.054500 -5.291366e-07
0.054750 -6.718404e-07
0.055000 -8.142810e-07
0.055250 -9.564145e-07
0.055500 -1.098197e-06
0.055750 -1.239586e-06
0.056000 -1.380537e-06
0.056250 -1.521008e-06
0.056500 -1.660955e-06
0.056750 -1.800335e-06
0.057000 -1.939105e-06
0.057250 -2.077224e-06
0.057500 -2.214649e-06
0.057750 -2.351338e-06
0.058000 -2.487249e-06
0.058250 -2.622341e-06
0.058500 -2.756572e-06
0.058750 -2.889901e-06
0.059000 -3.022288e-06
0.059250 -3.153693e-06
0.059500 -3.284075e-06
0.059750 -3.413394e-06
0.060000 -3.541612e-06
0.060250 -3.668689e-06
0.060500 -3.794586e-06
0.060750 -3.919266e-06
0.061000 -4.042690e-06
0.061250 -4.164821e-06
0.061500 -4.285622e-06
0.061750 -4.405056e-06
0.062000 -4.523087e-06
0.062250 -4.639679e-06
0.062500 -4.754798e-06
0.062750 -4.868407e-06
0.063000 -4.980473e-06
0.063250 -5.090962e-06
0.063500 -5.199840e-06
0.063750 -5.307075e-06
0.064000 -5.412634e-06
0.064250 -5.516486e-06
0.064500 -5.618598e-06
0.064750 -5.718942e-06
0.065000 -5.817485e-06
0.065250 -5.914199e-06
0.065500 -6.009055e-06
0.065750 -6.102024e-06
0.066000 -6.193078e-06
0.066250 -6.282191e-06
0.066500 -6.369334e-06
0.066750 -6.454483e-06
0.067000 -6.537612e-06
0.067250 -6.618697e-06
0.067500 -6.697712e-06
0.067750 -6.774635e-06
0.068000 -6.849442e-06
0.068250 -6.922112e-06
0.068500 -6.992624e-06
0.068750 -7.060955e-06
0.069000 -7.127086e-06
0.069250 -7.190998e-06
0.069500 -7.252671e-06
0.069750 -7.312088e-06
0.070000 -7.369232e-06
0.070250 -7.424085e-06
0.070500 -7.476631e-06
0.070750 -7.526856e-06
0.071000 -7.574745e-06
0.071250 -7.620284e-06
0.071500 -7.663459e-06
0.071750 -7.704259e-06
0.072000 -7.742672e-06
0.072250 -7.778687e-06
0.072500 -7.812294e-06
0.072750 -7.843483e-06
0.073000 -7.872246e-06
0.073250 -7.898576e-06
0.073500 -7.922464e-06
0.073750 -7.943904e-06
0.074000 -7.962891e-06
0.074250 -7.979420e-06
0.074500 -7.993487e-06
0.074750 -8.005088e-06
0.075000 -8.014220e-06
0.075250 -8.020883e-06
0.075500 -8.025075e-06
0.075750 -8.026795e-06
0.076000 -8.026044e-06
0.076250 -8.022823e-06
0.076500 -8.017134e-06
0.076750 -8.008980e-06
0.077000 -7.998364e-06
0.077250 -7.985291e-06
0.077500 -7.969765e-06
0.077750 -7.951792e-06
0.078000 -7.931379e-06
0.078250 -7.908532e-06
0.078500 -7.883261e-06
0.078750 -7.855573e-06
0.079000 -7.825478e-06
0.079250 -7.792986e-06
0.079500 -7.758108e-06
0.079750 -7.720856e-06
0.080000 -7.681242e-06
0.080250 -7.639279e-06
0.080500 -7.594981e-06
0.080750 -7.548362e-06
0.081000 -7.499439e-06
0.081250 -7.448226e-06
0.081500 -7.394740e-06
0.081750 -7.338999e-06
0.082000 -7.281020e-06
0.082250 -7.220822e-06
0.082500 -7.158426e-06
0.082750 -7.093850e-06
0.083000 -7.027115e-06
0.083250 -6.958243e-06
0.083500 -6.887256e-06
0.083750 -6.814176e-06
0.084000 -6.739026e-06
0.084250 -6.661831e-06
0.084500 -6.582615e-06
0.084750 -6.501403e-06
0.085000 -6.418221e-06
0.085250 -6.333096e-06
0.085500 -6.246053e-06
0.085750 -6.157121e-06
0.086000 -6.066327e-06
0.086250 -5.973701e-06
0.086500 -5.879271e-06
0.086750 -5.783067e-06
0.087000 -5.685120e-06
0.087250 -5.585460e-06
0.087500 -5.484118e-06
0.087750 -5.381127e-06
0.088000 -5.276518e-06
0.088250 -5.170324e-06
0.088500 -5.062579e-06
0.088750 -4.953316e-06
0.089000 -4.842569e-06
0.089250 -4.730374e-06
0.089500 -4.616764e-06
0.089750 -4.501776e-06
0.090000 -4.385445e-06
0.090250 -4.267808e-06
0.090500 -4.148901e-06
0.090750 -4.028762e-06
0.091000 -3.907427e-06
0.091250 -3.784934e-06
0.091500 -3.661322e-06
0.091750 -3.536629e-06
0.092000 -3.410894e-06
0.092250 -3.284155e-06
0.092500 -3.156452e-06
0.092750 -3.027825e-06
0.093000 -2.898313e-06
0.093250 -2.767957e-06
0.093500 -2.636797e-06
0.093750 -2.504874e-06
0.094000 -2.372228e-06
0.094250 -2.238900e-06
0.094500 -2.104932e-06
0.094750 -1.970366e-06
0.095000 -1.835242e-06
0.095250 -1.699602e-06
0.095500 -1.563489e-06
0.095750 -1.426944e-06
0.096000 -1.290009e-06
0.096250 -1.152727e-06
0.096500 -1.015140e-06
0.096750 -8.772901e-07
0.097000 -7.392202e-07
0.097250 -6.009726e-07
0.097500 -4.625899e-07
0.097750 -3.241145e-07
0.098000 -1.855892e-07
0.098250 -4.705645e-08
0.098500 9.144114e-08
0.098750 2.298610e-07
0.099000 3.681607e-07
0.099250 5.062978e-07
0.099500 6.442298e-07
0.099750 7.819145e-07
0.100000 9.193096e-07
0.100250 1.056373e-06
0.100500 1.193063e-06
0.100750 1.329337e-06
0.101000 1.465155e-06
0.101250 1.600473e-06
0.101500 1.735251e-06
0.101750 1.869448e-06
0.102000 2.003023e-06
0.102250 2.135934e-06
0.102500 2.268141e-06
0.102750 2.399605e-06
0.103000 2.530284e-06
0.103250 2.660139e-06
0.103500 2.789131e-06
0.103750 2.917219e-06
0.104000 3.044365e-06
0.104250 3.170531e-06
0.104500 3.295678e-06
0.104750 3.419767e-06
0.105000 3.542762e-06
0.105250 3.664624e-06
0.105500 3.785317e-06
0.105750 3.904804e-06
0.106000 4.023048e-06
0.106250 4.140015e-06
0.106500 4.255668e-06
0.106750 4.369972e-06
0.107000 4.482893e-06
0.107250 4.594397e-06
0.107500 4.704450e-06
0.107750 4.813018e-06
0.108000 4.920069e-06
0.108250 5.025571e-06
0.108500 5.129491e-06
0.108750 5.231798e-06
0.109000 5.332462e-06
0.109250 5.431452e-06
0.109500 5.528738e-06
0.109750 5.624292e-06
0.110000 5.718083e-06
0.110250 5.810085e-06
0.110500 5.900269e-06
0.110750 5.988609e-06
0.111000 6.075078e-06
0.111250 6.159651e-06
0.111500 6.242301e-06
0.111750 6.323004e-06
0.112000 6.401736e-06
0.112250 6.478474e-06
0.112500 6.553195e-06
0.112750 6.625876e-06
0.113000 6.696497e-06
0.113250 6.765035e-06
0.113500 6.831471e-06
0.113750 6.895786e-06
0.114000 6.957959e-06
0.114250 7.017973e-06
0.114500 7.075811e-06
0.114750 7.131454e-06
0.115000 7.184887e-06
0.115250 7.236095e-06
0.115500 7.285062e-06
0.115750 7.331774e-06
0.116000 7.376217e-06
0.116250 7.418379e-06
0.116500 7.458248e-06
0.116750 7.495812e-06
0.117000 7.531060e-06
0.117250 7.563983e-06
0.117500 7.594571e-06
0.117750 7.622815e-06
0.118000 7.648708e-06
0.118250 7.672243e-06
0.118500 7.693413e-06
0.118750 7.712213e-06
0.119000 7.728637e-06
0.119250 7.742682e-06
0.119500 7.754343e-06
0.119750 7.763619e-06
0.120000 7.770507e-06
0.120250 7.775006e-06
0.120500 7.777116e-06
0.120750 7.776836e-06
0.121000 7.774167e-06
0.121250 7.769112e-06
0.121500 7.761673e-06
0.121750 7.751852e-06
0.122000 7.739653e-06
0.122250 7.725082e-06
0.122500 7.708143e-06
0.122750 7.688843e-06
0.123000 7.667188e-06
0.123250 7.643185e-06
0.123500 7.616844e-06
0.123750 7.588172e-06
0.124000 7.557180e-06
0.124250 7.523877e-06
0.124500 7.488275e-06
0.124750 7.450386e-06
0.125000 7.410221e-06
0.125250 7.367795e-06
0.125500 7.323120e-06
0.125750 7.276212e-06
0.126000 7.227085e-06
0.126250 7.175755e-06
0.126500 7.122240e-06
0.126750 7.066555e-06
0.127000 7.008720e-06
0.127250 6.948751e-06
0.127500 6.886670e-06
0.127750 6.822494e-06
0.128000 6.756245e-06
0.128250 6.687944e-06
0.128500 6.617613e-06
0.128750 6.545273e-06
0.129000 6.470948e-06
0.129250 6.394661e-06
0.129500 6.316436e-06
0.129750 6.236298e-06
0.130000 6.154272e-06
0.130250 6.070384e-06
0.130500 5.984660e-06
0.130750 5.897128e-06
0.131000 5.807814e-06
0.131250 5.716747e-06
0.131500 5.623955e-06
0.131750 5.529468e-06
0.132000 5.433315e-06
0.132250 5.335525e-06
0.132500 5.236130e-06
0.132750 5.135161e-06
0.133000 5.032648e-06
0.133250 4.928625e-06
0.133500 4.823124e-06
0.133750 4.716176e-06
0.134000 4.607817e-06
0.134250 4.498078e-06
0.134500 4.386996e-06
0.134750 4.274603e-06
0.135000 4.160935e-06
0.135250 4.046028e-06
0.135500 3.929917e-06
0.135750 3.812637e-06
0.136000 3.694226e-06
0.136250 3.574720e-06
0.136500 3.454156e-06
0.136750 3.332572e-06
0.137000 3.210005e-06
0.137250 3.086492e-06
0.137500 2.962073e-06
0.137750 2.836786e-06
0.138000 2.710668e-06
0.138250 2.583761e-06
0.138500 2.456102e-06
0.138750 2.327730e-06
0.139000 2.198687e-06
0.139250 2.069010e-06
0.139500 1.938741e-06
0.139750 1.807920e-06
0.140000 1.676586e-06
0.140250 1.544781e-06
0.140500 1.412544e-06
0.140750 1.279917e-06
0.141000 1.146941e-06
0.141250 1.013655e-06
0.141500 8.801020e-07
0.141750 7.463221e-07
0.142000 6.123565e-07
0.142250 4.782463e-07
0.142500 3.440329e-07
0.142750 2.097573e-07
0.143000 7.546080e-08
0.143250 -5.881549e-08
0.143500 -1.930304e-07
0.143750 -3.271427e-07
0.144000 -4.611114e-07
0.144250 -5.948954e-07
0.144500 -7.284539e-07
0.144750 -8.617458e-07
0.145000 -9.947305e-07
0.145250 -1.127367e-06
0.145500 -1.259615e-06
0.145750 -1.391435e-06
0.146000 -1.522785e-06
0.146250 -1.653626e-06
0.146500 -1.783917e-06
0.146750 -1.913620e-06
0.147000 -2.042694e-06
0.147250 -2.171100e-06
0.147500 -2.298799e-06
0.147750 -2.425752e-06
0.148000 -2.551921e-06
0.148250 -2.677266e-06
0.148500 -2.801750e-06
0.148750 -2.925335e-06
0.149000 -3.047983e-06
0.149250 -3.169658e-06
0.149500 -3.290321e-06
0.149750 -3.409937e-06
0.150000 -3.528469e-06
0.150250 -3.645881e-06
0.150500 -3.762137e-06
0.150750 -3.877203e-06
0.151000 -3.991043e-06
0.151250 -4.103622e-06
0.151500 -4.214908e-06
0.151750 -4.324866e-06
0.152000 -4.433462e-06
0.152250 -4.540664e-06
0.152500 -4.646440e-06
0.152750 -4.750758e-06
0.153000 -4.853586e-06
0.153250 -4.954892e-06
0.153500 -5.054648e-06
0.153750 -5.152822e-06
0.154000 -5.249384e-06
0.154250 -5.344307e-06
0.154500 -5.437561e-06
0.154750 -5.529118e-06
0.155000 -5.618951e-06
0.155250 -5.707033e-06
0.155500 -5.793337e-06
0.155750 -5.877837e-06
0.156000 -5.960509e-06
0.156250 -6.041327e-06
0.156500 -6.120267e-06
0.156750 -6.197306e-06
0.157000 -6.272421e-06
0.157250 -6.345589e-06
0.157500 -6.416789e-06
0.157750 -6.485999e-06
0.158000 -6.553199e-06
0.158250 -6.618369e-06
0.158500 -6.681489e-06
0.158750 -6.742541e-06
0.159000 -6.801507e-06
0.159250 -6.858370e-06
0.159500 -6.913112e-06
0.159750 -6.965717e-06
0.160000 -7.016171e-06
0.160250 -7.064458e-06
0.160500 -7.110565e-06
0.160750 -7.154478e-06
0.161000 -7.196183e-06
0.161250 -7.235670e-06
0.161500 -7.272926e-06
0.161750 -7.307942e-06
0.162000 -7.340706e-06
0.162250 -7.371210e-06
0.162500 -7.399445e-06
0.162750 -7.425404e-06
0.163000 -7.449078e-06
0.163250 -7.470462e-06
0.163500 -7.489549e-06
0.163750 -7.506334e-06
0.164000 -7.520814e-06
0.164250 -7.532984e-06
0.164500 -7.542842e-06
0.164750 -7.550384e-06
0.165000 -7.555610e-06
0.165250 -7.558519e-06
0.165500 -7.559111e-06
0.165750 -7.557385e-06
0.166000 -7.553344e-06
0.166250 -7.546989e-06
0.166500 -7.538323e-06
0.166750 -7.527349e-06
0.167000 -7.514072e-06
0.167250 -7.498496e-06
0.167500 -7.480627e-06
0.167750 -7.460471e-06
0.168000 -7.438035e-06
0.168250 -7.413326e-06
0.168500 -7.386353e-06
0.168750 -7.357125e-06
0.169000 -7.325651e-06
0.169250 -7.291942e-06
0.169500 -7.256008e-06
0.169750 -7.217862e-06
0.170000 -7.177517e-06
0.170250 -7.134984e-06
0.170500 -7.090277e-06
0.170750 -7.043412e-06
0.171000 -6.994402e-06
0.171250 -6.943265e-06
0.171500 -6.890015e-06
0.171750 -6.834671e-06
0.172000 -6.777249e-06
0.172250 -6.717768e-06
0.172500 -6.656247e-06
0.172750 -6.592705e-06
0.173000 -6.527162e-06
0.173250 -6.459639e-06
0.173500 -6.390158e-06
0.173750 -6.318740e-06
0.174000 -6.245407e-06
0.174250 -6.170183e-06
0.174500 -6.093091e-06
0.174750 -6.014156e-06
0.175000 -5.933403e-06
0.175250 -5.850855e-06
0.175500 -5.766541e-06
0.175750 -5.680485e-06
0.176000 -5.592714e-06
0.176250 -5.503257e-06
0.176500 -5.412140e-06
0.176750 -5.319393e-06
0.177000 -5.225044e-06
0.177250 -5.129123e-06
0.177500 -5.031660e-06
0.177750 -4.932684e-06
0.178000 -4.832227e-06
0.178250 -4.730319e-06
0.178500 -4.626994e-06
0.178750 -4.522281e-06
0.179000 -4.416215e-06
0.179250 -4.308827e-06
0.179500 -4.200152e-06
0.179750 -4.090222e-06
0.180000 -3.979073e-06
0.180250 -3.866738e-06
0.180500 -3.753251e-06
0.180750 -3.638649e-06
0.181000 -3.522966e-06
0.181250 -3.406239e-06
0.181500 -3.288503e-06
0.181750 -3.169795e-06
0.182000 -3.050151e-06
0.182250 -2.929608e-06
0.182500 -2.808204e-06
0.182750 -2.685975e-06
0.183000 -2.562960e-06
0.183250 -2.439196e-06
0.183500 -2.314722e-06
0.183750 -2.189575e-06
0.184000 -2.063795e-06
0.184250 -1.937420e-06
0.184500 -1.810488e-06
0.184750 -1.683040e-06
0.185000 -1.555113e-06
0.185250 -1.426748e-06
0.185500 -1.297984e-06
0.185750 -1.168859e-06
0.186000 -1.039415e-06
0.186250 -9.096904e-07
0.186500 -7.797250e-07
0.186750 -6.495588e-07
0.187000 -5.192317e-07
0.187250 -3.887836e-07
0.187500 -2.582546e-07
0.187750 -1.276844e-07
0.188000 2.886769e-09
0.188250 1.334191e-07
0.188500 2.638726e-07
0.188750 3.942075e-07
0.189000 5.243838e-07
0.189250 6.543618e-07
0.189500 7.841018e-07
0.189750 9.135641e-07
0.190000 1.042709e-06
0.190250 1.171498e-06
0.190500 1.299891e-06
0.190750 1.427848e-06
0.191000 1.555332e-06
0.191250 1.682302e-06
0.191500 1.808721e-06
0.191750 1.934550e-06
0.192000 2.059751e-06
0.192250 2.184285e-06
0.192500 2.308114e-06
0.192750 2.431201e-06
0.193000 2.553509e-06
0.193250 2.675000e-06
0.193500 2.795638e-06
0.193750 2.915385e-06
0.194000 3.034205e-06
0.194250 3.152063e-06
0.194500 3.268922e-06
0.194750 3.384747e-06
0.195000 3.499503e-06
0.195250 3.613156e-06
0.195500 3.725670e-06
0.195750 3.837011e-06
0.196000 3.947147e-06
0.196250 4.056043e-06
0.196500 4.163667e-06
0.196750 4.269986e-06
0.197000 4.374968e-06
0.197250 4.478581e-06
0.197500 4.580795e-06
0.197750 4.681577e-06
0.198000 4.780898e-06
0.198250 4.878728e-06
0.198500 4.975038e-06
0.198750 5.069797e-06
0.199000 5.162979e-06
0.199250 5.254554e-06
0.199500 5.344496e-06
0.199750 5.432777e-06
0.200000 5.519370e-06
0.200250 5.604250e-06
0.200500 5.687392e-06
0.200750 5.768770e-06
0.201000 5.848360e-06
0.201250 5.926138e-06
0.201500 6.002081e-06
0.201750 6.076166e-06
0.202000 6.148372e-06
0.202250 6.218676e-06
0.202500 6.287058e-06
0.202750 6.353497e-06
0.203000 6.417974e-06
0.203250 6.480470e-06
0.203500 6.540965e-06
0.203750 6.599443e-06
0.204000 6.655885e-06
0.204250 6.710275e-06
0.204500 6.762597e-06
0.204750 6.812836e-06
0.205000 6.860977e-06
0.205250 6.907006e-06
0.205500 6.950909e-06
0.205750 6.992674e-06
0.206000 7.032289e-06
0.206250 7.069741e-06
0.206500 7.105020e-06
0.206750 7.138116e-06
0.207000 7.169020e-06
0.207250 7.197723e-06
0.207500 7.224216e-06
0.207750 7.248492e-06
0.208000 7.270545e-06
0.208250 7.290368e-06
0.208500 7.307956e-06
0.208750 7.323304e-06
0.209000 7.336408e-06
0.209250 7.347265e-06
0.209500 7.355872e-06
0.209750 7.362227e-06
0.210000 7.366328e-06
0.210250 7.368177e-06
0.210500 7.367771e-06
0.210750 7.365113e-06
0.211000 7.360203e-06
0.211250 7.353044e-06
0.211500 7.343638e-06
0.211750 7.331990e-06
0.212000 7.318103e-06
0.212250 7.301982e-06
0.212500 7.283634e-06
0.212750 7.263063e-06
0.213000 7.240277e-06
0.213250 7.215284e-06
0.213500 7.188092e-06
0.213750 7.158710e-06
0.214000 7.127148e-06
0.214250 7.093415e-06
0.214500 7.057523e-06
0.214750 7.019483e-06
0.215000 6.979309e-06
0.215250 6.937011e-06
0.215500 6.892605e-06
0.215750 6.846104e-06
0.216000 6.797524e-06
0.216250 6.746879e-06
0.216500 6.694185e-06
0.216750 6.639461e-06
0.217000 6.582722e-06
0.217250 6.523986e-06
0.217500 6.463273e-06
0.217750 6.400602e-06
0.218000 6.335992e-06
0.218250 6.269463e-06
0.218500 6.201037e-06
0.218750 6.130734e-06
0.219000 6.058578e-06
0.219250 5.984590e-06
0.219500 5.908794e-06
0.219750 5.831214e-06
0.220000 5.751874e-06
0.220250 5.670798e-06
0.220500 5.588012e-06
0.220750 5.503542e-06
0.221000 5.417415e-06
0.221250 5.329656e-06
0.221500 5.240294e-06
0.221750 5.149355e-06
0.222000 5.056870e-06
0.222250 4.962866e-06
0.222500 4.867372e-06
0.222750 4.770419e-06
0.223000 4.672036e-06
0.223250 4.572254e-06
0.223500 4.471105e-06
0.223750 4.368618e-06
0.224000 4.264827e-06
0.224250 4.159763e-06
0.224500 4.053460e-06
0.224750 3.945949e-06
0.225000 3.837264e-06
0.225250 3.727440e-06
0.225500 3.616510e-06
0.225750 3.504508e-06
0.226000 3.391470e-06
0.226250 3.277429e-06
0.226500 3.162422e-06
0.226750 3.046485e-06
0.227000 2.929652e-06
0.227250 2.811960e-06
0.227500 2.693446e-06
0.227750 2.574146e-06
0.228000 2.454098e-06
0.228250 2.333338e-06
0.228500 2.211903e-06
0.228750 2.089832e-06
0.229000 1.967163e-06
0.229250 1.843932e-06
0.229500 1.720178e-06
0.229750 1.595940e-06
0.230000 1.471256e-06
0.230250 1.346164e-06
0.230500 1.220704e-06
0.230750 1.094914e-06
0.231000 9.688331e-07
0.231250 8.425003e-07
0.231500 7.159548e-07
0.231750 5.892357e-07
0.232000 4.623825e-07
0.232250 3.354344e-07
0.232500 2.084307e-07
0.232750 8.141086e-08
0.233000 -4.558568e-08
0.233250 -1.725195e-07
0.233500 -2.993512e-07
0.233750 -4.260414e-07
0.234000 -5.525507e-07
0.234250 -6.788397e-07
0.234500 -8.048692e-07
0.234750 -9.305999e-07
0.235000 -1.055993e-06
0.235250 -1.181008e-06
0.235500 -1.305608e-06
0.235750 -1.429753e-06
0.236000 -1.553404e-06
0.236250 -1.676522e-06
0.236500 -1.799070e-06
0.236750 -1.921009e-06
0.237000 -2.042299e-06
0.237250 -2.162905e-06
0.237500 -2.282786e-06
0.237750 -2.401907e-06
0.238000 -2.520228e-06
0.238250 -2.637714e-06
0.238500 -2.754326e-06
0.238750 -2.870028e-06
0.239000 -2.984783e-06
0.239250 -3.098555e-06
0.239500 -3.211307e-06
0.239750 -3.323004e-06
0.240000 -3.433610e-06
0.240250 -3.543089e-06
0.240500 -3.651407e-06
0.240750 -3.758529e-06
0.241000 -3.864419e-06
0.241250 -3.969044e-06
0.241500 -4.072370e-06
0.241750 -4.174363e-06
0.242000 -4.274991e-06
0.242250 -4.374219e-06
0.242500 -4.472016e-06
0.242750 -4.568349e-06
0.243000 -4.663186e-06
0.243250 -4.756496e-06
0.243500 -4.848248e-06
0.243750 -4.938410e-06
0.244000 -5.026953e-06
0.244250 -5.113846e-06
0.244500 -5.199060e-06
0.244750 -5.282565e-06
0.245000 -5.364332e-06
0.245250 -5.444334e-06
0.245500 -5.522541e-06
0.245750 -5.598927e-06
0.246000 -5.673464e-06
0.246250 -5.746126e-06
0.246500 -5.816885e-06
0.246750 -5.885716e-06
0.247000 -5.952593e-06
0.247250 -6.017492e-06
0.247500 -6.080387e-06
0.247750 -6.141254e-06
0.248000 -6.200070e-06
0.248250 -6.256811e-06
0.248500 -6.311453e-06
0.248750 -6.363976e-06
0.249000 -6.414356e-06
0.249250 -6.462571e-06
0.249500 -6.508601e-06
0.249750 -6.552426e-06
0.250000 -6.594023e-06
0.250250 -6.633374e-06
0.250500 -6.670460e-06
0.250750 -6.705260e-06
0.251000 -6.737757e-06
0.251250 -6.767932e-06
0.251500 -6.795768e-06
0.251750 -6.821247e-06
0.252000 -6.844352e-06
0.252250 -6.865067e-06
0.252500 -6.883376e-06
0.252750 -6.899263e-06
0.253000 -6.912713e-06
0.253250 -6.923711e-06
0.253500 -6.932242e-06
0.253750 -6.938292e-06
0.254000 -6.941849e-06
0.254250 -6.942897e-06
0.254500 -6.941426e-06
0.254750 -6.937420e-06
0.255000 -6.930870e-06
0.255250 -6.921762e-06
0.255500 -6.910085e-06
0.255750 -6.895829e-06
0.256000 -6.878981e-06
0.256250 -6.859532e-06
0.256500 -6.837471e-06
0.256750 -6.812789e-06
0.257000 -6.785475e-06
0.257250 -6.755520e-06
0.257500 -6.722916e-06
0.257750 -6.687653e-06
0.258000 -6.649722e-06
0.258250 -6.609116e-06
0.258500 -6.565826e-06
0.258750 -6.519845e-06
0.259000 -6.471163e-06
0.259250 -6.419775e-06
0.259500 -6.365673e-06
0.259750 -6.308848e-06
0.260000 -6.249296e-06
0.260250 -6.187007e-06
0.260500 -6.121977e-06
0.260750 -6.054197e-06
0.261000 -5.983662e-06
0.261250 -5.910365e-06
0.261500 -5.834300e-06
0.261750 -5.755460e-06
0.262000 -5.673838e-06
0.262250 -5.589430e-06
0.262500 -5.502227e-06
0.262750 -5.412225e-06
0.263000 -5.319416e-06
0.263250 -5.223795e-06
0.263500 -5.125354e-06
0.263750 -5.024088e-06
0.264000 -4.919990e-06
0.264250 -4.813052e-06
0.264500 -4.703270e-06
0.264750 -4.590634e-06
0.265000 -4.475139e-06
0.265250 -4.356776e-06
0.265500 -4.235539e-06
0.265750 -4.111420e-06
0.266000 -3.984411e-06
0.266250 -3.854503e-06
0.266500 -3.721689e-06
0.266750 -3.585959e-06
0.267000 -3.447305e-06
0.267250 -3.305717e-06
0.267500 -3.161186e-06
0.267750 -3.013702e-06
0.268000 -2.863253e-06
0.268250 -2.709831e-06
0.268500 -2.553422e-06
0.268750 -2.394017e-06
0.269000 -2.231602e-06
0.269250 -2.066166e-06
0.269500 -1.897695e-06
0.269750 -1.726176e-06
0.270000 -1.551595e-06
0.270250 -1.373938e-06
0.270500 -1.193190e-06
0.270750 -1.009335e-06
0.271000 -8.223564e-07
0.271250 -6.322386e-07
0.271500 -4.389638e-07
0.271750 -2.425143e-07
0.272000 -4.287143e-08
0.272250 1.599839e-07
0.272500 3.660716e-07
0.272750 5.754120e-07
0.273000 7.880263e-07
0.273250 1.003936e-06
0.273500 1.223165e-06
0.273750 1.445735e-06
0.274000 1.671671e-06
0.274250 1.900997e-06
0.274500 2.133738e-06
0.274750 2.369922e-06
0.275000 2.609575e-06
0.275250 2.852725e-06
0.275500 3.099400e-06
0.275750 3.349629e-06
0.276000 3.603444e-06
0.276250 3.860874e-06
0.276500 4.121951e-06
0.276750 4.386708e-06
0.277000 4.655178e-06
0.277250 4.927396e-06
0.277500 5.203395e-06
0.277750 5.483212e-06
0.278000 5.766883e-06
0.278250 6.054445e-06
0.278500 6.345937e-06
0.278750 6.641397e-06
0.279000 6.940865e-06
0.279250 7.244382e-06
0.279500 7.551987e-06
0.279750 7.863724e-06
0.280000 8.179635e-06
0.280250 8.499762e-06
0.280500 8.824152e-06
0.280750 9.152846e-06
0.281000 9.485893e-06
0.281250 9.823337e-06
0.281500 1.016522e-05
0.281750 1.051160e-05
0.282000 1.086252e-05
0.282250 1.121803e-05
0.282500 1.157817e-05
0.282750 1.194300e-05
0.283000 1.231257e-05
0.283250 1.268692e-05
0.283500 1.306612e-05
0.283750 1.345020e-05
0.284000 1.383922e-05
0.284250 1.423323e-05
0.284500 1.463229e-05
0.284750 1.503645e-05
0.285000 1.544576e-05
0.285250 1.586027e-05
0.285500 1.628004e-05
0.285750 1.670512e-05
0.286000 1.713556e-05
0.286250 1.757142e-05
0.286500 1.801274e-05
0.286750 1.845959e-05
0.287000 1.891201e-05
0.287250 1.937005e-05
0.287500 1.983378e-05
0.287750 2.030323e-05
0.288000 2.077846e-05
0.288250 2.125953e-05
0.288500 2.174647e-05
0.288750 2.223935e-05
0.289000 2.273820e-05
0.289250 2.324308e-05
0.289500 2.375403e-05
0.289750 2.427110e-05
0.290000 2.479434e-05
0.290250 2.532378e-05
0.290500 2.585947e-05
0.290750 2.640145e-05
0.291000 2.694976e-05
0.291250 2.750443e-05
0.291500 2.806552e-05
0.291750 2.863304e-05
0.292000 2.920703e-05
0.292250 2.978752e-05
0.292500 3.037455e-05
0.292750 3.096813e-05
0.293000 3.156830e-05
0.293250 3.217507e-05
0.293500 3.278847e-05
0.293750 3.340851e-05
0.294000 3.403520e-05
0.294250 3.466857e-05
0.294500 3.530861e-05
0.294750 3.595534e-05
0.295000 3.660876e-05
0.295250 3.726886e-05
0.295500 3.793564e-05
0.295750 3.860910e-05
0.296000 3.928922e-05
0.296250 3.997599e-05
0.296500 4.066939e-05
0.296750 4.136940e-05
0.297000 4.207599e-05
0.297250 4.278913e-05
0.297500 4.350878e-05
0.297750 4.423491e-05
0.298000 4.496747e-05
0.298250 4.570641e-05
0.298500 4.645167e-05
0.298750 4.720319e-05
0.299000 4.796092e-05
0.299250 4.872478e-05
0.299500 4.949469e-05
0.299750 5.027057e-05
0.300000 5.105233e-05
0.300250 5.183989e-05
0.300500 5.263314e-05
0.300750 5.343198e-05
0.301000 5.423629e-05
0.301250 5.504596e-05
0.301500 5.586085e-05
0.301750 5.668085e-05
0.302000 5.750581e-05
0.302250 5.833558e-05
0.302500 5.917001e-05
0.302750 6.000894e-05
0.303000 6.085221e-05
0.303250 6.169963e-05
0.303500 6.255103e-05
0.303750 6.340621e-05
0.304000 6.426498e-05
0.304250 6.512712e-05
0.304500 6.599243e-05
0.304750 6.686067e-05
0.305000 6.773162e-05
0.305250 6.860504e-05
0.305500 6.948068e-05
0.305750 7.035827e-05
0.306000 7.123756e-05
0.306250 7.211826e-05
0.306500 7.300010e-05
0.306750 7.388278e-05
0.307000 7.476599e-05
0.307250 7.564942e-05
0.307500 7.653275e-05
0.307750 7.741565e-05
0.308000 7.829778e-05
0.308250 7.917878e-05
0.308500 8.005831e-05
0.308750 8.093597e-05
0.309000 8.181141e-05
0.309250 8.268422e-05
0.309500 8.355400e-05
0.309750 8.442036e-05
0.310000 8.528286e-05
0.310250 8.614107e-05
0.310500 8.699457e-05
0.310750 8.784289e-05
0.311000 8.868558e-05
0.311250 8.952217e-05
0.311500 9.035217e-05
0.311750 9.117511e-05
0.312000 9.199047e-05
0.312250 9.279775e-05
0.312500 9.359643e-05
0.312750 9.438599e-05
0.313000 9.516587e-05
0.313250 9.593553e-05
0.313500 9.669441e-05
0.313750 9.744195e-05
0.314000 9.817756e-05
0.314250 9.890067e-05
0.314500 9.961066e-05
0.314750 1.003069e-04
0.315000 1.009889e-04
0.315250 1.016559e-04
0.315500 1.023073e-04
0.315750 1.029425e-04
0.316000 1.035608e-04
0.316250 1.041616e-04
0.316500 1.047442e-04
0.316750 1.053079e-04
0.317000 1.058520e-04
0.317250 1.063760e-04
0.317500 1.068789e-04
0.317750 1.073602e-04
0.318000 1.078192e-04
0.318250 1.082551e-04
0.318500 1.086672e-04
0.318750 1.090548e-04
0.319000 1.094171e-04
0.319250 1.097534e-04
0.319500 1.100630e-04
0.319750 1.103451e-04
0.320000 1.105989e-04
0.320250 1.108237e-04
0.320500 1.110188e-04
0.320750 1.111833e-04
0.321000 1.113165e-04
0.321250 1.114176e-04
0.321500 1.114859e-04
0.321750 1.115206e-04
0.322000 1.115208e-04
0.322250 1.114859e-04
0.322500 1.114150e-04
0.322750 1.113073e-04
0.323000 1.111622e-04
0.323250 1.109787e-04
0.323500 1.107562e-04
0.323750 1.104938e-04
0.324000 1.101908e-04
0.324250 1.098464e-04
0.324500 1.094598e-04
0.324750 1.090303e-04
0.325000 1.085571e-04
0.325250 1.080395e-04
0.325500 1.074767e-04
0.325750 1.068680e-04
0.326000 1.062126e-04
0.326250 1.055098e-04
0.326500 1.047589e-04
0.326750 1.039592e-04
0.327000 1.031100e-04
0.327250 1.022105e-04
0.327500 1.012601e-04
0.327750 1.002582e-04
0.328000 9.920395e-05
0.328250 9.809685e-05
0.328500 9.693620e-05
0.328750 9.572140e-05
0.329000 9.445183e-05
0.329250 9.312690e-05
0.329500 9.174601e-05
0.329750 9.030861e-05
0.330000 8.881415e-05
0.330250 8.726210e-05
0.330500 8.565194e-05
0.330750 8.398317e-05
0.331000 8.225532e-05
0.331250 8.046794e-05
0.331500 7.862058e-05
0.331750 7.671284e-05
0.332000 7.474431e-05
0.332250 7.271463e-05
0.332500 7.062344e-05
0.332750 6.847044e-05
0.333000 6.625531e-05
0.333250 6.397777e-05
0.333500 6.163759e-05
0.333750 5.923454e-05
0.334000 5.676842e-05
0.334250 5.423907e-05