-0.138818 8.099227e-06
-0.138568 7.997867e-06
-0.138318 7.894083e-06
-0.138068 7.787908e-06
-0.137818 7.679378e-06
-0.137568 7.568527e-06
-0.137318 7.455390e-06
-0.137068 7.340005e-06
-0.136818 7.222408e-06
-0.136568 7.102638e-06
-0.136318 6.980732e-06
-0.136068 6.856729e-06
-0.135818 6.730670e-06
-0.135568 6.602594e-06
-0.135318 6.472543e-06
-0.135068 6.340557e-06
-0.134818 6.206680e-06
-0.134568 6.070953e-06
-0.134318 5.933419e-06
-0.134068 5.794124e-06
-0.133818 5.653109e-06
-0.133568 5.510422e-06
-0.133318 5.366105e-06
-0.133068 5.220206e-06
-0.132818 5.072771e-06
-0.132568 4.923845e-06
-0.132318 4.773477e-06
-0.132068 4.621713e-06
-0.131818 4.468601e-06
-0.131568 4.314190e-06
-0.131318 4.158528e-06
-0.131068 4.001665e-06
-0.130818 3.843649e-06
-0.130568 3.684530e-06
-0.130318 3.524359e-06
-0.130068 3.363185e-06
-0.129818 3.201059e-06
-0.129568 3.038032e-06
-0.129318 2.874155e-06
-0.129068 2.709479e-06
-0.128818 2.544055e-06
-0.128568 2.377936e-06
-0.128318 2.211174e-06
-0.128068 2.043820e-06
-0.127818 1.875926e-06
-0.127568 1.707545e-06
-0.127318 1.538730e-06
-0.127068 1.369533e-06
-0.126818 1.200007e-06
-0.126568 1.030204e-06
-0.126318 8.601773e-07
-0.126068 6.899797e-07
-0.125818 5.196640e-07
-0.125568 3.492832e-07
-0.125318 1.788900e-07
-0.125068 8.537382e-09
-0.124818 -1.617220e-07
-0.124568 -3.318354e-07
-0.124318 -5.017501e-07
-0.124068 -6.714137e-07
-0.123818 -8.407735e-07
-0.123568 -1.009777e-06
-0.123318 -1.178373e-06
-0.123068 -1.346509e-06
-0.122818 -1.514132e-06
-0.122568 -1.681192e-06
-0.122318 -1.847637e-06
-0.122068 -2.013415e-06
-0.121818 -2.178476e-06
-0.121568 -2.342768e-06
-0.121318 -2.506242e-06
-0.121068 -2.668847e-06
-0.120818 -2.830534e-06
-0.120568 -2.991252e-06
-0.120318 -3.150952e-06
-0.120068 -3.309586e-06
-0.119818 -3.467105e-06
-0.119568 -3.623460e-06
-0.119318 -3.778605e-06
-0.119068 -3.932490e-06
-0.118818 -4.085071e-06
-0.118568 -4.236299e-06
-0.118318 -4.386129e-06
-0.118068 -4.534516e-06
-0.117818 -4.681414e-06
-0.117568 -4.826777e-06
-0.117318 -4.970564e-06
-0.117068 -5.112728e-06
-0.116818 -5.253228e-06
-0.116568 -5.392021e-06
-0.116318 -5.529065e-06
-0.116068 -5.664318e-06
-0.115818 -5.797739e-06
-0.115568 -5.929288e-06
-0.115318 -6.058925e-06
-0.115068 -6.186612e-06
-0.114818 -6.312310e-06
-0.114568 -6.435980e-06
-0.114318 -6.557586e-06
-0.114068 -6.677091e-06
-0.113818 -6.794460e-06
-0.113568 -6.909657e-06
-0.113318 -7.022648e-06
-0.113068 -7.133398e-06
-0.112818 -7.241875e-06
-0.112568 -7.348047e-06
-0.112318 -7.451882e-06
-0.112068 -7.553349e-06
-0.111818 -7.652418e-06
-0.111568 -7.749059e-06
-0.111318 -7.843244e-06
-0.111068 -7.934946e-06
-0.110818 -8.024137e-06
-0.110568 -8.110790e-06
-0.110318 -8.194881e-06
-0.110068 -8.276385e-06
-0.109818 -8.355279e-06
-0.109568 -8.431538e-06
-0.109318 -8.505141e-06
-0.109068 -8.576066e-06
-0.108818 -8.644294e-06
-0.108568 -8.709804e-06
-0.108318 -8.772578e-06
-0.108068 -8.832598e-06
-0.107818 -8.889846e-06
-0.107568 -8.944307e-06
-0.107318 -8.995965e-06
-0.107068 -9.044805e-06
-0.106818 -9.090815e-06
-0.106568 -9.133981e-06
-0.106318 -9.174292e-06
-0.106068 -9.211737e-06
-0.105818 -9.246305e-06
-0.105568 -9.277988e-06
-0.105318 -9.306778e-06
-0.105068 -9.332666e-06
-0.104818 -9.355648e-06
-0.104568 -9.375716e-06
-0.104318 -9.392867e-06
-0.104068 -9.407097e-06
-0.103818 -9.418402e-06
-0.103568 -9.426782e-06
-0.103318 -9.432236e-06
-0.103068 -9.434762e-06
-0.102818 -9.434362e-06
-0.102568 -9.431038e-06
-0.102318 -9.424792e-06
-0.102068 -9.415628e-06
-0.101818 -9.403550e-06
-0.101568 -9.388564e-06
-0.101318 -9.370676e-06
-0.101068 -9.349893e-06
-0.100818 -9.326222e-06
-0.100568 -9.299674e-06
-0.100318 -9.270258e-06
-0.100068 -9.237984e-06
-0.099818 -9.202863e-06
-0.099568 -9.164910e-06
-0.099318 -9.124136e-06
-0.099068 -9.080556e-06
-0.098818 -9.034185e-06
-0.098568 -8.985038e-06
-0.098318 -8.933134e-06
-0.098068 -8.878488e-06
-0.097818 -8.821120e-06
-0.097568 -8.761049e-06
-0.097318 -8.698294e-06
-0.097068 -8.632878e-06
-0.096818 -8.564821e-06
-0.096568 -8.494146e-06
-0.096318 -8.420876e-06
-0.096068 -8.345036e-06
-0.095818 -8.266650e-06
-0.095568 -8.185744e-06
-0.095318 -8.102344e-06
-0.095068 -8.016478e-06
-0.094818 -7.928173e-06
-0.094568 -7.837459e-06
-0.094318 -7.744364e-06
-0.094068 -7.648919e-06
-0.093818 -7.551154e-06
-0.093568 -7.451102e-06
-0.093318 -7.348793e-06
-0.093068 -7.244262e-06
-0.092818 -7.137542e-06
-0.092568 -7.028667e-06
-0.092318 -6.917671e-06
-0.092068 -6.804591e-06
-0.091818 -6.689462e-06
-0.091568 -6.572322e-06
-0.091318 -6.453207e-06
-0.091068 -6.332155e-06
-0.090818 -6.209206e-06
-0.090568 -6.084398e-06
-0.090318 -5.957771e-06
-0.090068 -5.829365e-06
-0.089818 -5.699220e-06
-0.089568 -5.567378e-06
-0.089318 -5.433882e-06
-0.089068 -5.298771e-06
-0.088818 -5.162091e-06
-0.088568 -5.023883e-06
-0.088318 -4.884192e-06
-0.088068 -4.743061e-06
-0.087818 -4.600535e-06
-0.087568 -4.456659e-06
-0.087318 -4.311478e-06
-0.087068 -4.165037e-06
-0.086818 -4.017383e-06
-0.086568 -3.868562e-06
-0.086318 -3.718621e-06
-0.086068 -3.567606e-06
-0.085818 -3.415566e-06
-0.085568 -3.262547e-06
-0.085318 -3.108598e-06
-0.085068 -2.953767e-06
-0.084818 -2.798101e-06
-0.084568 -2.641651e-06
-0.084318 -2.484464e-06
-0.084068 -2.326589e-06
-0.083818 -2.168077e-06
-0.083568 -2.008976e-06
-0.083318 -1.849335e-06
-0.083068 -1.689205e-06
-0.082818 -1.528636e-06
-0.082568 -1.367677e-06
-0.082318 -1.206378e-06
-0.082068 -1.044790e-06
-0.081818 -8.829622e-07
-0.081568 -7.209454e-07
-0.081318 -5.587896e-07
-0.081068 -3.965452e-07
-0.080818 -2.342624e-07
-0.080568 -7.199147e-08
-0.080318 9.021739e-08
-0.080068 2.523140e-07
-0.079818 4.142483e-07
-0.079568 5.759701e-07
-0.079318 7.374296e-07
-0.079068 8.985770e-07
-0.078818 1.059362e-06
-0.078568 1.219737e-06
-0.078318 1.379650e-06
-0.078068 1.539053e-06
-0.077818 1.697897e-06
-0.077568 1.856133e-06
-0.077318 2.013712e-06
-0.077068 2.170586e-06
-0.076818 2.326707e-06
-0.076568 2.482026e-06
-0.076318 2.636497e-06
-0.076068 2.790071e-06
-0.075818 2.942703e-06
-0.075568 3.094344e-06
-0.075318 3.244949e-06
-0.075068 3.394471e-06
-0.074818 3.542865e-06
-0.074568 3.690086e-06
-0.074318 3.836088e-06
-0.074068 3.980828e-06
-0.073818 4.124260e-06
-0.073568 4.266341e-06
-0.073318 4.407029e-06
-0.073068 4.546279e-06
-0.072818 4.684050e-06
-0.072568 4.820301e-06
-0.072318 4.954988e-06
-0.072068 5.088073e-06
-0.071818 5.219514e-06
-0.071568 5.349271e-06
-0.071318 5.477306e-06
-0.071068 5.603579e-06
-0.070818 5.728053e-06
-0.070568 5.850689e-06
-0.070318 5.971452e-06
-0.070068 6.090303e-06
-0.069818 6.207209e-06
-0.069568 6.322133e-06
-0.069318 6.435041e-06
-0.069068 6.545899e-06
-0.068818 6.654674e-06
-0.068568 6.761333e-06
-0.068318 6.865845e-06
-0.068068 6.968178e-06
-0.067818 7.068301e-06
-0.067568 7.166185e-06
-0.067318 7.261801e-06
-0.067068 7.355121e-06
-0.066818 7.446115e-06
-0.066568 7.534759e-06
-0.066318 7.621025e-06
-0.066068 7.704888e-06
-0.065818 7.786323e-06
-0.065568 7.865306e-06
-0.065318 7.941815e-06
-0.065068 8.015826e-06
-0.064818 8.087319e-06
-0.064568 8.156272e-06
-0.064318 8.222665e-06
-0.064068 8.286479e-06
-0.063818 8.347696e-06
-0.063568 8.406298e-06
-0.063318 8.462269e-06
-0.063068 8.515591e-06
-0.062818 8.566251e-06
-0.062568 8.614234e-06
-0.062318 8.659526e-06
-0.062068 8.702115e-06
-0.061818 8.741989e-06
-0.061568 8.779137e-06
-0.061318 8.813549e-06
-0.061068 8.845216e-06
-0.060818 8.874129e-06
-0.060568 8.900280e-06
-0.060318 8.923664e-06
-0.060068 8.944274e-06
-0.059818 8.962106e-06
-0.059568 8.977154e-06
-0.059318 8.989417e-06
-0.059068 8.998891e-06
-0.058818 9.005575e-06
-0.058568 9.009469e-06
-0.058318 9.010573e-06
-0.058068 9.008887e-06
-0.057818 9.004414e-06
-0.057568 8.997156e-06
-0.057318 8.987117e-06
-0.057068 8.974303e-06
-0.056818 8.958717e-06
-0.056568 8.940366e-06
-0.056318 8.919258e-06
-0.056068 8.895400e-06
-0.055818 8.868801e-06
-0.055568 8.839470e-06
-0.055318 8.807419e-06
-0.055068 8.772658e-06
-0.054818 8.735199e-06
-0.054568 8.695056e-06
-0.054318 8.652242e-06
-0.054068 8.606772e-06
-0.053818 8.558661e-06
-0.053568 8.507925e-06
-0.053318 8.454582e-06
-0.053068 8.398649e-06
-0.052818 8.340145e-06
-0.052568 8.279088e-06
-0.052318 8.215501e-06
-0.052068 8.149402e-06
-0.051818 8.080815e-06
-0.051568 8.009760e-06
-0.051318 7.936263e-06
-0.051068 7.860346e-06
-0.050818 7.782034e-06
-0.050568 7.701353e-06
-0.050318 7.618329e-06
-0.050068 7.532988e-06
-0.049818 7.445359e-06
-0.049568 7.355469e-06
-0.049318 7.263347e-06
-0.049068 7.169024e-06
-0.048818 7.072528e-06
-0.048568 6.973892e-06
-0.048318 6.873146e-06
-0.048068 6.770323e-06
-0.047818 6.665456e-06
-0.047568 6.558578e-06
-0.047318 6.449723e-06
-0.047068 6.338926e-06
-0.046818 6.226222e-06
-0.046568 6.111647e-06
-0.046318 5.995236e-06
-0.046068 5.877028e-06
-0.045818 5.757060e-06
-0.045568 5.635369e-06
-0.045318 5.511993e-06
-0.045068 5.386973e-06
-0.044818 5.260347e-06
-0.044568 5.132155e-06
-0.044318 5.002438e-06
-0.044068 4.871237e-06
-0.043818 4.738592e-06
-0.043568 4.604546e-06
-0.043318 4.469140e-06
-0.043068 4.332418e-06
-0.042818 4.194421e-06
-0.042568 4.055194e-06
-0.042318 3.914780e-06
-0.042068 3.773223e-06
-0.041818 3.630568e-06
-0.041568 3.486858e-06
-0.041318 3.342139e-06
-0.041068 3.196456e-06
-0.040818 3.049855e-06
-0.040568 2.902381e-06
-0.040318 2.754080e-06
-0.040068 2.604999e-06
-0.039818 2.455184e-06
-0.039568 2.304682e-06
-0.039318 2.153539e-06
-0.039068 2.001803e-06
-0.038818 1.849521e-06
-0.038568 1.696740e-06
-0.038318 1.543507e-06
-0.038068 1.389870e-06
-0.037818 1.235877e-06
-0.037568 1.081576e-06
-0.037318 9.270139e-07
-0.037068 7.722392e-07
-0.036818 6.172997e-07
-0.036568 4.622434e-07
-0.036318 3.071182e-07
-0.036068 1.519721e-07
-0.035818 -3.147007e-09
-0.035568 -1.581911e-07
-0.035318 -3.131124e-07
-0.035068 -4.678631e-07
-0.034818 -6.223954e-07
-0.034568 -7.766616e-07
-0.034318 -9.306144e-07
-0.034068 -1.084206e-06
-0.033818 -1.237390e-06
-0.033568 -1.390118e-06
-0.033318 -1.542344e-06
-0.033068 -1.694020e-06
-0.032818 -1.845101e-06
-0.032568 -1.995540e-06
-0.032318 -2.145291e-06
-0.032068 -2.294307e-06
-0.031818 -2.442543e-06
-0.031568 -2.589954e-06
-0.031318 -2.736495e-06
-0.031068 -2.882120e-06
-0.030818 -3.026786e-06
-0.030568 -3.170447e-06
-0.030318 -3.313061e-06
-0.030068 -3.454583e-06
-0.029818 -3.594970e-06
-0.029568 -3.734179e-06
-0.029318 -3.872169e-06
-0.029068 -4.008896e-06
-0.028818 -4.144320e-06
-0.028568 -4.278399e-06
-0.028318 -4.411093e-06
-0.028068 -4.542360e-06
-0.027818 -4.672161e-06
-0.027568 -4.800458e-06
-0.027318 -4.927210e-06
-0.027068 -5.052380e-06
-0.026818 -5.175929e-06
-0.026568 -5.297820e-06
-0.026318 -5.418017e-06
-0.026068 -5.536482e-06
-0.025818 -5.653181e-06
-0.025568 -5.768078e-06
-0.025318 -5.881138e-06
-0.025068 -5.992328e-06
-0.024818 -6.101613e-06
-0.024568 -6.208962e-06
-0.024318 -6.314341e-06
-0.024068 -6.417720e-06
-0.023818 -6.519067e-06
-0.023568 -6.618352e-06
-0.023318 -6.715545e-06
-0.023068 -6.810617e-06
-0.022818 -6.903540e-06
-0.022568 -6.994286e-06
-0.022318 -7.082828e-06
-0.022068 -7.169140e-06
-0.021818 -7.253197e-06
-0.021568 -7.334973e-06
-0.021318 -7.414444e-06
-0.021068 -7.491587e-06
-0.020818 -7.566378e-06
-0.020568 -7.638797e-06
-0.020318 -7.708822e-06
-0.020068 -7.776432e-06
-0.019818 -7.841608e-06
-0.019568 -7.904330e-06
-0.019318 -7.964581e-06
-0.019068 -8.022342e-06
-0.018818 -8.077598e-06
-0.018568 -8.130332e-06
-0.018318 -8.180530e-06
-0.018068 -8.228177e-06
-0.017818 -8.273259e-06
-0.017568 -8.315764e-06
-0.017318 -8.355680e-06
-0.017068 -8.392995e-06
-0.016818 -8.427700e-06
-0.016568 -8.459785e-06
-0.016318 -8.489241e-06
-0.016068 -8.516061e-06
-0.015818 -8.540237e-06
-0.015568 -8.561764e-06
-0.015318 -8.580635e-06
-0.015068 -8.596846e-06
-0.014818 -8.610393e-06
-0.014568 -8.621275e-06
-0.014318 -8.629487e-06
-0.014068 -8.635030e-06
-0.013818 -8.637902e-06
-0.013568 -8.638104e-06
-0.013318 -8.635637e-06
-0.013068 -8.630503e-06
-0.012818 -8.622706e-06
-0.012568 -8.612248e-06
-0.012318 -8.599134e-06
-0.012068 -8.583370e-06
-0.011818 -8.564961e-06
-0.011568 -8.543914e-06
-0.011318 -8.520237e-06
-0.011068 -8.493940e-06
-0.010818 -8.465030e-06
-0.010568 -8.433518e-06
-0.010318 -8.399415e-06
-0.010068 -8.362733e-06
-0.009818 -8.323485e-06
-0.009568 -8.281683e-06
-0.009318 -8.237342e-06
-0.009068 -8.190476e-06
-0.008818 -8.141101e-06
-0.008568 -8.089234e-06
-0.008318 -8.034892e-06
-0.008068 -7.978092e-06
-0.007818 -7.918854e-06
-0.007568 -7.857197e-06
-0.007318 -7.793140e-06
-0.007068 -7.726705e-06
-0.006818 -7.657913e-06
-0.006568 -7.586788e-06
-0.006318 -7.513350e-06
-0.006068 -7.437626e-06
-0.005818 -7.359638e-06
-0.005568 -7.279412e-06
-0.005318 -7.196973e-06
-0.005068 -7.112349e-06
-0.004818 -7.025567e-06
-0.004568 -6.936653e-06
-0.004318 -6.845637e-06
-0.004068 -6.752548e-06
-0.003818 -6.657414e-06
-0.003568 -6.560267e-06
-0.003318 -6.461138e-06
-0.003068 -6.360058e-06
-0.002818 -6.257058e-06
-0.002568 -6.152173e-06
-0.002318 -6.045434e-06
-0.002068 -5.936876e-06
-0.001818 -5.826533e-06
-0.001568 -5.714439e-06
-0.001318 -5.600631e-06
-0.001068 -5.485145e-06
-0.000818 -5.368015e-06
-0.000568 -5.249281e-06
-0.000318 -5.128978e-06
-0.000068 -5.007144e-06
0.000182 -4.883819e-06
0.000432 -4.759040e-06
0.000682 -4.632847e-06
0.000932 -4.505280e-06
0.001182 -4.376378e-06
0.001432 -4.246181e-06
0.001682 -4.114732e-06
0.001932 -3.982069e-06
0.002182 -3.848236e-06
0.002432 -3.713274e-06
0.002682 -3.577225e-06
0.002932 -3.440132e-06
0.003182 -3.302037e-06
0.003432 -3.162983e-06
0.003682 -3.023014e-06
0.003932 -2.882173e-06
0.004182 -2.740505e-06
0.004432 -2.598053e-06
0.004682 -2.454861e-06
0.004932 -2.310974e-06
0.005182 -2.166437e-06
0.005432 -2.021295e-06
0.005682 -1.875592e-06
0.005932 -1.729374e-06
0.006182 -1.582687e-06
0.006432 -1.435575e-06
0.006682 -1.288084e-06
0.006932 -1.140260e-06
0.007182 -9.921489e-07
0.007432 -8.437962e-07
0.007682 -6.952479e-07
0.007932 -5.465497e-07
0.008182 -3.977478e-07
0.008432 -2.488880e-07
0.008682 -1.000162e-07
0.008932 4.882154e-08
0.009182 1.975794e-07
0.009432 3.462116e-07
0.009682 4.946722e-07
0.009932 6.429156e-07
0.010182 7.908962e-07
0.010432 9.385683e-07
0.010682 1.085887e-06
0.010932 1.232806e-06
0.011182 1.379281e-06
0.011432 1.525267e-06
0.011682 1.670719e-06
0.011932 1.815592e-06
0.012182 1.959843e-06
0.012432 2.103426e-06
0.012682 2.246297e-06
0.012932 2.388414e-06
0.013182 2.529733e-06
0.013432 2.670209e-06
0.013682 2.809801e-06
0.013932 2.948466e-06
0.014182 3.086161e-06
0.014432 3.222844e-06
0.014682 3.358474e-06
0.014932 3.493009e-06
0.015182 3.626409e-06
0.015432 3.758632e-06
0.015682 3.889638e-06
0.015932 4.019388e-06
0.016182 4.147842e-06
0.016432 4.274961e-06
0.016682 4.400706e-06
0.016932 4.525040e-06
0.017182 4.647924e-06
0.017432 4.769321e-06
0.017682 4.889195e-06
0.017932 5.007509e-06
0.018182 5.124227e-06
0.018432 5.239314e-06
0.018682 5.352736e-06
0.018932 5.464457e-06
0.019182 5.574445e-06
0.019432 5.682667e-06
0.019682 5.789089e-06
0.019932 5.893679e-06
0.020182 5.996407e-06
0.020432 6.097241e-06
0.020682 6.196151e-06
0.020932 6.293107e-06
0.021182 6.388081e-06
0.021432 6.481043e-06
0.021682 6.571967e-06
0.021932 6.660824e-06
0.022182 6.747590e-06
0.022432 6.832236e-06
0.022682 6.914740e-06
0.022932 6.995075e-06
0.023182 7.073218e-06
0.023432 7.149147e-06
0.023682 7.222838e-06
0.023932 7.294270e-06
0.024182 7.363421e-06
0.024432 7.430272e-06
0.024682 7.494803e-06
0.024932 7.556995e-06
0.025182 7.616829e-06
0.025432 7.674289e-06
0.025682 7.729358e-06
0.025932 7.782019e-06
0.026182 7.832258e-06
0.026432 7.880060e-06
0.026682 7.925411e-06
0.026932 7.968299e-06
0.027182 8.008711e-06
0.027432 8.046637e-06
0.027682 8.082064e-06
0.027932 8.114984e-06
0.028182 8.145387e-06
0.028432 8.173266e-06
0.028682 8.198611e-06
0.028932 8.221418e-06
0.029182 8.241680e-06
0.029432 8.259392e-06
0.029682 8.274549e-06
0.029932 8.287147e-06
0.030182 8.297185e-06
0.030432 8.304660e-06
0.030682 8.309571e-06
0.030932 8.311917e-06
0.031182 8.311699e-06
0.031432 8.308917e-06
0.031682 8.303575e-06
0.031932 8.295674e-06
0.032182 8.285219e-06
0.032432 8.272213e-06
0.032682 8.256661e-06
0.032932 8.238570e-06
0.033182 8.217946e-06
0.033432 8.194797e-06
0.033682 8.169130e-06
0.033932 8.140955e-06
0.034182 8.110281e-06
0.034432 8.077119e-06
0.034682 8.041481e-06
0.034932 8.003378e-06
0.035182 7.962822e-06
0.035432 7.919829e-06
0.035682 7.874411e-06
0.035932 7.826584e-06
0.036182 7.776363e-06
0.036432 7.723766e-06
0.036682 7.668809e-06
0.036932 7.611510e-06
0.037182 7.551888e-06
0.037432 7.489962e-06
0.037682 7.425753e-06
0.037932 7.359280e-06
0.038182 7.290566e-06
0.038432 7.219633e-06
0.038682 7.146503e-06
0.038932 7.071199e-06
0.039182 6.993747e-06
0.039432 6.914170e-06
0.039682 6.832494e-06
0.039932 6.748745e-06
0.040182 6.662950e-06
0.040432 6.575136e-06
0.040682 6.485331e-06
0.040932 6.393563e-06
0.041182 6.299862e-06
0.041432 6.204257e-06
0.041682 6.106778e-06
0.041932 6.007457e-06
0.042182 5.906324e-06
0.042432 5.803412e-06
0.042682 5.698753e-06
0.042932 5.592379e-06
0.043182 5.484325e-06
0.043432 5.374625e-06
0.043682 5.263312e-06
0.043932 5.150422e-06
0.044182 5.035990e-06
0.044432 4.920052e-06
0.044682 4.802645e-06
0.044932 4.683805e-06
0.045182 4.563569e-06
0.045432 4.441975e-06
0.045682 4.319061e-06
0.045932 4.194866e-06
0.046182 4.069428e-06
0.046432 3.942786e-06
0.046682 3.814980e-06
0.046932 3.686049e-06
0.047182 3.556035e-06
0.047432 3.424976e-06
0.047682 3.292915e-06
0.047932 3.159892e-06
0.048182 3.025949e-06
0.048432 2.891127e-06
0.048682 2.755467e-06
0.048932 2.619013e-06
0.049182 2.481807e-06
0.049432 2.343890e-06
0.049682 2.205307e-06
0.049932 2.066099e-06
0.050182 1.926310e-06
0.050432 1.785983e-06
0.050682 1.645162e-06
0.050932 1.503890e-06
0.051182 1.362211e-06
0.051432 1.220168e-06
0.051682 1.077806e-06
0.051932 9.351683e-07
0.052182 7.922992e-07
0.052432 6.492426e-07
0.052682 5.060428e-07
0.052932 3.627439e-07
0.053182 2.193899e-07
0.053432 7.602516e-08
0.053682 -6.730630e-08
0.053932 -2.105603e-07
0.054182 -3.536929e-07
0.054432 -4.966599e-07
0.054682 -6.394175e-07
0.054932 -7.819218e-07
0.055182 -9.241289e-07
0.055432 -1.065995e-06
0.055682 -1.207478e-06
0.055932 -1.348532e-06
0.056182 -1.489116e-06
0.056432 -1.629185e-06
0.056682 -1.768698e-06
0.056932 -1.907611e-06
0.057182 -2.045882e-06
0.057432 -2.183468e-06
0.057682 -2.320328e-06
0.057932 -2.456419e-06
0.058182 -2.591701e-06
0.058432 -2.726131e-06
0.058682 -2.859669e-06
0.058932 -2.992274e-06
0.059182 -3.123906e-06
0.059432 -3.254524e-06
0.059682 -3.384088e-06
0.059932 -3.512560e-06
0.060182 -3.639899e-06
0.060432 -3.766068e-06
0.060682 -3.891028e-06
0.060932 -4.014741e-06
0.061182 -4.137169e-06
0.061432 -4.258276e-06
0.061682 -4.378024e-06
0.061932 -4.496377e-06
0.062182 -4.613300e-06
0.062432 -4.728756e-06
0.062682 -4.842711e-06
0.062932 -4.955131e-06
0.063182 -5.065982e-06
0.063432 -5.175229e-06
0.063682 -5.282840e-06
0.063932 -5.388783e-06
0.064182 -5.493026e-06
0.064432 -5.595537e-06
0.064682 -5.696285e-06
0.064932 -5.795240e-06
0.065182 -5.892373e-06
0.065432 -5.987654e-06
0.065682 -6.081054e-06
0.065932 -6.172546e-06
0.066182 -6.262102e-06
0.066432 -6.349696e-06
0.066682 -6.435301e-06
0.066932 -6.518891e-06
0.067182 -6.600443e-06
0.067432 -6.679930e-06
0.067682 -6.757331e-06
0.067932 -6.832621e-06
0.068182 -6.905779e-06
0.068432 -6.976783e-06
0.068682 -7.045612e-06
0.068932 -7.112245e-06
0.069182 -7.176663e-06
0.069432 -7.238847e-06
0.069682 -7.298779e-06
0.069932 -7.356441e-06
0.070182 -7.411816e-06
0.070432 -7.464888e-06
0.070682 -7.515642e-06
0.070932 -7.564063e-06
0.071182 -7.610137e-06
0.071432 -7.653851e-06
0.071682 -7.695192e-06
0.071932 -7.734149e-06
0.072182 -7.770710e-06
0.072432 -7.804865e-06
0.072682 -7.836605e-06
0.072932 -7.865921e-06
0.073182 -7.892804e-06
0.073432 -7.917247e-06
0.073682 -7.939245e-06
0.073932 -7.958790e-06
0.074182 -7.975878e-06
0.074432 -7.990505e-06
0.074682 -8.002667e-06
0.074932 -8.012361e-06
0.075182 -8.019585e-06
0.075432 -8.024339e-06
0.075682 -8.026621e-06
0.075932 -8.026431e-06
0.076182 -8.023772e-06
0.076432 -8.018644e-06
0.076682 -8.011050e-06
0.076932 -8.000994e-06
0.077182 -7.988479e-06
0.077432 -7.973510e-06
0.077682 -7.956093e-06
0.077932 -7.936234e-06
0.078182 -7.913940e-06
0.078432 -7.889219e-06
0.078682 -7.862080e-06
0.078932 -7.832531e-06
0.079182 -7.800583e-06
0.079432 -7.766247e-06
0.079682 -7.729533e-06
0.079932 -7.690455e-06
0.080182 -7.649025e-06
0.080432 -7.605257e-06
0.080682 -7.559164e-06
0.080932 -7.510763e-06
0.081182 -7.460069e-06
0.081432 -7.407099e-06
0.081682 -7.351869e-06
0.081932 -7.294397e-06
0.082182 -7.234703e-06
0.082432 -7.172804e-06
0.082682 -7.108722e-06
0.082932 -7.042476e-06
0.083182 -6.974088e-06
0.083432 -6.903580e-06
0.083682 -6.830973e-06
0.083932 -6.756292e-06
0.084182 -6.679560e-06
0.084432 -6.600802e-06
0.084682 -6.520041e-06
0.084932 -6.437305e-06
0.085182 -6.352619e-06
0.085432 -6.266010e-06
0.085682 -6.177504e-06
0.085932 -6.087132e-06
0.086182 -5.994920e-06
0.086432 -5.900897e-06
0.086682 -5.805094e-06
0.086932 -5.707541e-06
0.087182 -5.608267e-06
0.087432 -5.507305e-06
0.087682 -5.404686e-06
0.087932 -5.300442e-06
0.088182 -5.194605e-06
0.088432 -5.087210e-06
0.088682 -4.978289e-06
0.088932 -4.867877e-06
0.089182 -4.756007e-06
0.089432 -4.642716e-06
0.089682 -4.528038e-06
0.089932 -4.412010e-06
0.090182 -4.294667e-06
0.090432 -4.176045e-06
0.090682 -4.056183e-06
0.090932 -3.935116e-06
0.091182 -3.812883e-06
0.091432 -3.689523e-06
0.091682 -3.565072e-06
0.091932 -3.439570e-06
0.092182 -3.313056e-06
0.092432 -3.185569e-06
0.092682 -3.057148e-06
0.092932 -2.927834e-06
0.093182 -2.797667e-06
0.093432 -2.666686e-06
0.093682 -2.534932e-06
0.093932 -2.402447e-06
0.094182 -2.269271e-06
0.094432 -2.135445e-06
0.094682 -2.001011e-06
0.094932 -1.866010e-06
0.095182 -1.730483e-06
0.095432 -1.594474e-06
0.095682 -1.458024e-06
0.095932 -1.321174e-06
0.096182 -1.183967e-06
0.096432 -1.046446e-06
0.096682 -9.086519e-07
0.096932 -7.706283e-07
0.097182 -6.324173e-07
0.097432 -4.940616e-07
0.097682 -3.556035e-07
0.097932 -2.170858e-07
0.098182 -7.855104e-08
0.098432 5.995828e-08
0.098682 1.983996e-07
0.098932 3.367303e-07
0.099182 4.749081e-07
0.099432 6.128904e-07
0.099682 7.506351e-07
0.099932 8.880997e-07
0.100182 1.025242e-06
0.100432 1.162021e-06
0.100682 1.298393e-06
0.100932 1.434318e-06
0.101182 1.569754e-06
0.101432 1.704658e-06
0.101682 1.838991e-06
0.101932 1.972710e-06
0.102182 2.105776e-06
0.102432 2.238147e-06
0.102682 2.369783e-06
0.102932 2.500644e-06
0.103182 2.630690e-06
0.103432 2.759882e-06
0.103682 2.888179e-06
0.103932 3.015543e-06
0.104182 3.141935e-06
0.104432 3.267317e-06
0.104682 3.391650e-06
0.104932 3.514896e-06
0.105182 3.637019e-06
0.105432 3.757981e-06
0.105682 3.877745e-06
0.105932 3.996276e-06
0.106182 4.113536e-06
0.106432 4.229491e-06
0.106682 4.344105e-06
0.106932 4.457343e-06
0.107182 4.569172e-06
0.107432 4.679558e-06
0.107682 4.788467e-06
0.107932 4.895865e-06
0.108182 5.001722e-06
0.108432 5.106005e-06
0.108682 5.208681e-06
0.108932 5.309722e-06
0.109182 5.409095e-06
0.109432 5.506771e-06
0.109682 5.602721e-06
0.109932 5.696915e-06
0.110182 5.789327e-06
0.110432 5.879927e-06
0.110682 5.968688e-06
0.110932 6.055585e-06
0.111182 6.140591e-06
0.111432 6.223680e-06
0.111682 6.304828e-06
0.111932 6.384010e-06
0.112182 6.461204e-06
0.112432 6.536385e-06
0.112682 6.609532e-06
0.112932 6.680623e-06
0.113182 6.749637e-06
0.113432 6.816553e-06
0.113682 6.881351e-06
0.113932 6.944013e-06
0.114182 7.004519e-06
0.114432 7.062853e-06
0.114682 7.118997e-06
0.114932 7.172934e-06
0.115182 7.224649e-06
0.115432 7.274127e-06
0.115682 7.321352e-06
0.115932 7.366313e-06
0.116182 7.408995e-06
0.116432 7.449386e-06
0.116682 7.487475e-06
0.116932 7.523250e-06
0.117182 7.556703e-06
0.117432 7.587822e-06
0.117682 7.616600e-06
0.117932 7.643028e-06
0.118182 7.667100e-06
0.118432 7.688808e-06
0.118682 7.708147e-06
0.118932 7.725112e-06
0.119182 7.739698e-06
0.119432 7.751902e-06
0.119682 7.761720e-06
0.119932 7.769151e-06
0.120182 7.774193e-06
0.120432 7.776846e-06
0.120682 7.777109e-06
0.120932 7.774984e-06
0.121182 7.770471e-06
0.121432 7.763573e-06
0.121682 7.754293e-06
0.121932 7.742635e-06
0.122182 7.728603e-06
0.122432 7.712202e-06
0.122682 7.693438e-06
0.122932 7.672318e-06
0.123182 7.648848e-06
0.123432 7.623038e-06
0.123682 7.594895e-06
0.123932 7.564429e-06
0.124182 7.531651e-06
0.124432 7.496571e-06
0.124682 7.459200e-06
0.124932 7.419552e-06
0.125182 7.377639e-06
0.125432 7.333474e-06
0.125682 7.287072e-06
0.125932 7.238448e-06
0.126182 7.187618e-06
0.126432 7.134598e-06
0.126682 7.079405e-06
0.126932 7.022057e-06
0.127182 6.962572e-06
0.127432 6.900969e-06
0.127682 6.837268e-06
0.127932 6.771488e-06
0.128182 6.703652e-06
0.128432 6.633780e-06
0.128682 6.561895e-06
0.128932 6.488019e-06
0.129182 6.412176e-06
0.129432 6.334390e-06
0.129682 6.254684e-06
0.129932 6.173085e-06
0.130182 6.089619e-06
0.130432 6.004310e-06
0.130682 5.917186e-06
0.130932 5.828275e-06
0.131182 5.737604e-06
0.131432 5.645202e-06
0.131682 5.551098e-06
0.131932 5.455320e-06
0.132182 5.357900e-06
0.132432 5.258867e-06
0.132682 5.158253e-06
0.132932 5.056089e-06
0.133182 4.952407e-06
0.133432 4.847238e-06
0.133682 4.740617e-06
0.133932 4.632575e-06
0.134182 4.523147e-06
0.134432 4.412367e-06
0.134682 4.300269e-06
0.134932 4.186888e-06
0.135182 4.072260e-06
0.135432 3.956419e-06
0.135682 3.839402e-06
0.135932 3.721245e-06
0.136182 3.601985e-06
0.136432 3.481658e-06
0.136682 3.360303e-06
0.136932 3.237955e-06
0.137182 3.114654e-06
0.137432 2.990438e-06
0.137682 2.865345e-06
0.137932 2.739413e-06
0.138182 2.612681e-06
0.138432 2.485190e-06
0.138682 2.356977e-06
0.138932 2.228082e-06
0.139182 2.098546e-06
0.139432 1.968409e-06
0.139682 1.837709e-06
0.139932 1.706489e-06
0.140182 1.574787e-06
0.140432 1.442645e-06
0.140682 1.310103e-06
0.140932 1.177202e-06
0.141182 1.043983e-06
0.141432 9.104874e-07
0.141682 7.767554e-07
0.141932 6.428284e-07
0.142182 5.087475e-07
0.142432 3.745540e-07
0.142682 2.402889e-07
0.142932 1.059935e-07
0.143182 -2.829098e-08
0.143432 -1.625234e-07
0.143682 -2.966627e-07
0.143932 -4.306677e-07
0.144182 -5.644973e-07
0.144432 -6.981106e-07
0.144682 -8.314667e-07
0.144932 -9.645248e-07
0.145182 -1.097244e-06
0.145432 -1.229584e-06
0.145682 -1.361505e-06
0.145932 -1.492965e-06
0.146182 -1.623925e-06
0.146432 -1.754345e-06
0.146682 -1.884185e-06
0.146932 -2.013406e-06
0.147182 -2.141967e-06
0.147432 -2.269830e-06
0.147682 -2.396956e-06
0.147932 -2.523307e-06
0.148182 -2.648842e-06
0.148432 -2.773526e-06
0.148682 -2.897318e-06
0.148932 -3.020183e-06
0.149182 -3.142082e-06
0.149432 -3.262978e-06
0.149682 -3.382836e-06
0.149932 -3.501617e-06
0.150182 -3.619287e-06
0.150432 -3.735809e-06
0.150682 -3.851148e-06
0.150932 -3.965270e-06
0.151182 -4.078139e-06
0.151432 -4.189722e-06
0.151682 -4.299984e-06
0.151932 -4.408893e-06
0.152182 -4.516415e-06
0.152432 -4.622519e-06
0.152682 -4.727171e-06
0.152932 -4.830340e-06
0.153182 -4.931995e-06
0.153432 -5.032106e-06
0.153682 -5.130642e-06
0.153932 -5.227573e-06
0.154182 -5.322871e-06
0.154432 -5.416507e-06
0.154682 -5.508452e-06
0.154932 -5.598680e-06
0.155182 -5.687162e-06
0.155432 -5.773872e-06
0.155682 -5.858785e-06
0.155932 -5.941875e-06
0.156182 -6.023117e-06
0.156432 -6.102486e-06
0.156682 -6.179959e-06
0.156932 -6.255514e-06
0.157182 -6.329126e-06
0.157432 -6.400776e-06
0.157682 -6.470440e-06
0.157932 -6.538098e-06
0.158182 -6.603731e-06
0.158432 -6.667319e-06
0.158682 -6.728843e-06
0.158932 -6.788285e-06
0.159182 -6.845627e-06
0.159432 -6.900853e-06
0.159682 -6.953946e-06
0.159932 -7.004890e-06
0.160182 -7.053671e-06
0.160432 -7.100275e-06
0.160682 -7.144687e-06
0.160932 -7.186896e-06
0.161182 -7.226888e-06
0.161432 -7.264652e-06
0.161682 -7.300178e-06
0.161932 -7.333455e-06
0.162182 -7.364474e-06
0.162432 -7.393226e-06
0.162682 -7.419702e-06
0.162932 -7.443896e-06
0.163182 -7.465801e-06
0.163432 -7.485411e-06
0.163682 -7.502721e-06
0.163932 -7.517725e-06
0.164182 -7.530420e-06
0.164432 -7.540804e-06
0.164682 -7.548873e-06
0.164932 -7.554626e-06
0.165182 -7.558061e-06
0.165432 -7.559180e-06
0.165682 -7.557981e-06
0.165932 -7.554466e-06
0.166182 -7.548636e-06
0.166432 -7.540496e-06
0.166682 -7.530046e-06
0.166932 -7.517292e-06
0.167182 -7.502239e-06
0.167432 -7.484891e-06
0.167682 -7.465254e-06
0.167932 -7.443335e-06
0.168182 -7.419143e-06
0.168432 -7.392684e-06
0.168682 -7.363967e-06
0.168932 -7.333003e-06
0.169182 -7.299801e-06
0.169432 -7.264373e-06
0.169682 -7.226729e-06
0.169932 -7.186882e-06
0.170182 -7.144845e-06
0.170432 -7.100632e-06
0.170682 -7.054256e-06
0.170932 -7.005733e-06
0.171182 -6.955077e-06
0.171432 -6.902307e-06
0.171682 -6.847437e-06
0.171932 -6.790486e-06
0.172182 -6.731471e-06
0.172432 -6.670412e-06
0.172682 -6.607328e-06
0.172932 -6.542238e-06
0.173182 -6.475164e-06
0.173432 -6.406126e-06
0.173682 -6.335146e-06
0.173932 -6.262246e-06
0.174182 -6.187450e-06
0.174432 -6.110781e-06
0.174682 -6.032263e-06
0.174932 -5.951921e-06
0.175182 -5.869779e-06
0.175432 -5.785864e-06
0.175682 -5.700201e-06
0.175932 -5.612818e-06
0.176182 -5.523742e-06
0.176432 -5.433000e-06
0.176682 -5.340622e-06
0.176932 -5.246634e-06
0.177182 -5.151068e-06
0.177432 -5.053953e-06
0.177682 -4.955318e-06
0.177932 -4.855195e-06
0.178182 -4.753614e-06
0.178432 -4.650608e-06
0.178682 -4.546208e-06
0.178932 -4.440447e-06
0.179182 -4.333357e-06
0.179432 -4.224971e-06
0.179682 -4.115324e-06
0.179932 -4.004449e-06
0.180182 -3.892380e-06
0.180432 -3.779152e-06
0.180682 -3.664801e-06
0.180932 -3.549361e-06
0.181182 -3.432868e-06
0.181432 -3.315358e-06
0.181682 -3.196867e-06
0.181932 -3.077433e-06
0.182182 -2.957091e-06
0.182432 -2.835879e-06
0.182682 -2.713835e-06
0.182932 -2.590995e-06
0.183182 -2.467398e-06
0.183432 -2.343082e-06
0.183682 -2.218085e-06
0.183932 -2.092446e-06
0.184182 -1.966202e-06
0.184432 -1.839394e-06
0.184682 -1.712059e-06
0.184932 -1.584238e-06
0.185182 -1.455969e-06
0.185432 -1.327292e-06
0.185682 -1.198246e-06
0.185932 -1.068871e-06
0.186182 -9.392065e-07
0.186432 -8.092924e-07
0.186682 -6.791683e-07
0.186932 -5.488743e-07
0.187182 -4.184502e-07