-0.138818 -5.674072e-07
-0.138568 -5.640771e-07
-0.138318 -5.608163e-07
-0.138068 -5.576259e-07
-0.137818 -5.545066e-07
-0.137568 -5.514592e-07
-0.137318 -5.484847e-07
-0.137068 -5.455837e-07
-0.136818 -5.427571e-07
-0.136568 -5.400055e-07
-0.136318 -5.373296e-07
-0.136068 -5.347302e-07
-0.135818 -5.322080e-07
-0.135568 -5.297635e-07
-0.135318 -5.273974e-07
-0.135068 -5.251103e-07
-0.134818 -5.229027e-07
-0.134568 -5.207752e-07
-0.134318 -5.187283e-07
-0.134068 -5.167625e-07
-0.133818 -5.148782e-07
-0.133568 -5.130760e-07
-0.133318 -5.113562e-07
-0.133068 -5.097192e-07
-0.132818 -5.081654e-07
-0.132568 -5.066951e-07
-0.132318 -5.053087e-07
-0.132068 -5.040063e-07
-0.131818 -5.027884e-07
-0.131568 -5.016551e-07
-0.131318 -5.006066e-07
-0.131068 -4.996432e-07
-0.130818 -4.987649e-07
-0.130568 -4.979719e-07
-0.130318 -4.972644e-07
-0.130068 -4.966424e-07
-0.129818 -4.961059e-07
-0.129568 -4.956550e-07
-0.129318 -4.952897e-07
-0.129068 -4.950099e-07
-0.128818 -4.948157e-07
-0.128568 -4.947069e-07
-0.128318 -4.946834e-07
-0.128068 -4.947451e-07
-0.127818 -4.948919e-07
-0.127568 -4.951235e-07
-0.127318 -4.954398e-07
-0.127068 -4.958406e-07
-0.126818 -4.963255e-07
-0.126568 -4.968943e-07
-0.126318 -4.975466e-07
-0.126068 -4.982822e-07
-0.125818 -4.991007e-07
-0.125568 -5.000018e-07
-0.125318 -5.009849e-07
-0.125068 -5.020496e-07
-0.124818 -5.031956e-07
-0.124568 -5.044223e-07
-0.124318 -5.057292e-07
-0.124068 -5.071158e-07
-0.123818 -5.085815e-07
-0.123568 -5.101258e-07
-0.123318 -5.117480e-07
-0.123068 -5.134476e-07
-0.122818 -5.152238e-07
-0.122568 -5.170760e-07
-0.122318 -5.190036e-07
-0.122068 -5.210057e-07
-0.121818 -5.230817e-07
-0.121568 -5.252308e-07
-0.121318 -5.274522e-07
-0.121068 -5.297451e-07
-0.120818 -5.321087e-07
-0.120568 -5.345421e-07
-0.120318 -5.370445e-07
-0.120068 -5.396150e-07
-0.119818 -5.422526e-07
-0.119568 -5.449565e-07
-0.119318 -5.477257e-07
-0.119068 -5.505592e-07
-0.118818 -5.534561e-07
-0.118568 -5.564154e-07
-0.118318 -5.594359e-07
-0.118068 -5.625168e-07
-0.117818 -5.656568e-07
-0.117568 -5.688551e-07
-0.117318 -5.721104e-07
-0.117068 -5.754216e-07
-0.116818 -5.787877e-07
-0.116568 -5.822075e-07
-0.116318 -5.856798e-07
-0.116068 -5.892035e-07
-0.115818 -5.927773e-07
-0.115568 -5.964002e-07
-0.115318 -6.000708e-07
-0.115068 -6.037879e-07
-0.114818 -6.075504e-07
-0.114568 -6.113569e-07
-0.114318 -6.152062e-07
-0.114068 -6.190970e-07
-0.113818 -6.230280e-07
-0.113568 -6.269979e-07
-0.113318 -6.310054e-07
-0.113068 -6.350492e-07
-0.112818 -6.391279e-07
-0.112568 -6.432402e-07
-0.112318 -6.473848e-07
-0.112068 -6.515603e-07
-0.111818 -6.557653e-07
-0.111568 -6.599984e-07
-0.111318 -6.642583e-07
-0.111068 -6.685436e-07
-0.110818 -6.728529e-07
-0.110568 -6.771847e-07
-0.110318 -6.815377e-07
-0.110068 -6.859104e-07
-0.109818 -6.903015e-07
-0.109568 -6.947095e-07
-0.109318 -6.991329e-07
-0.109068 -7.035704e-07
-0.108818 -7.080205e-07
-0.108568 -7.124817e-07
-0.108318 -7.169527e-07
-0.108068 -7.214320e-07
-0.107818 -7.259181e-07
-0.107568 -7.304096e-07
-0.107318 -7.349050e-07
-0.107068 -7.394030e-07
-0.106818 -7.439020e-07
-0.106568 -7.484007e-07
-0.106318 -7.528975e-07
-0.106068 -7.573910e-07
-0.105818 -7.618799e-07
-0.105568 -7.663626e-07
-0.105318 -7.708377e-07
-0.105068 -7.753039e-07
-0.104818 -7.797596e-07
-0.104568 -7.842034e-07
-0.104318 -7.886340e-07
-0.104068 -7.930499e-07
-0.103818 -7.974497e-07
-0.103568 -8.018321e-07
-0.103318 -8.061955e-07
-0.103068 -8.105387e-07
-0.102818 -8.148602e-07
-0.102568 -8.191587e-07
-0.102318 -8.234328e-07
-0.102068 -8.276812e-07
-0.101818 -8.319025e-07
-0.101568 -8.360954e-07
-0.101318 -8.402585e-07
-0.101068 -8.443906e-07
-0.100818 -8.484903e-07
-0.100568 -8.525563e-07
-0.100318 -8.565873e-07
-0.100068 -8.605822e-07
-0.099818 -8.645395e-07
-0.099568 -8.684581e-07
-0.099318 -8.723367e-07
-0.099068 -8.761741e-07
-0.098818 -8.799692e-07
-0.098568 -8.837206e-07
-0.098318 -8.874272e-07
-0.098068 -8.910879e-07
-0.097818 -8.947015e-07
-0.097568 -8.982669e-07
-0.097318 -9.017829e-07
-0.097068 -9.052484e-07
-0.096818 -9.086624e-07
-0.096568 -9.120238e-07
-0.096318 -9.153315e-07
-0.096068 -9.185844e-07
-0.095818 -9.217817e-07
-0.095568 -9.249222e-07
-0.095318 -9.280050e-07
-0.095068 -9.310291e-07
-0.094818 -9.339936e-07
-0.094568 -9.368975e-07
-0.094318 -9.397400e-07
-0.094068 -9.425201e-07
-0.093818 -9.452370e-07
-0.093568 -9.478897e-07
-0.093318 -9.504776e-07
-0.093068 -9.529998e-07
-0.092818 -9.554555e-07
-0.092568 -9.578439e-07
-0.092318 -9.601642e-07
-0.092068 -9.624159e-07
-0.091818 -9.645981e-07
-0.091568 -9.667101e-07
-0.091318 -9.687514e-07
-0.091068 -9.707213e-07
-0.090818 -9.726191e-07
-0.090568 -9.744443e-07
-0.090318 -9.761962e-07
-0.090068 -9.778745e-07
-0.089818 -9.794784e-07
-0.089568 -9.810076e-07
-0.089318 -9.824616e-07
-0.089068 -9.838398e-07
-0.088818 -9.851419e-07
-0.088568 -9.863674e-07
-0.088318 -9.875160e-07
-0.088068 -9.885874e-07
-0.087818 -9.895811e-07
-0.087568 -9.904968e-07
-0.087318 -9.913344e-07
-0.087068 -9.920934e-07
-0.086818 -9.927737e-07
-0.086568 -9.933751e-07
-0.086318 -9.938974e-07
-0.086068 -9.943403e-07
-0.085818 -9.947038e-07
-0.085568 -9.949877e-07
-0.085318 -9.951920e-07
-0.085068 -9.953165e-07
-0.084818 -9.953613e-07
-0.084568 -9.953263e-07
-0.084318 -9.952115e-07
-0.084068 -9.950169e-07
-0.083818 -9.947427e-07
-0.083568 -9.943888e-07
-0.083318 -9.939554e-07
-0.083068 -9.934425e-07
-0.082818 -9.928504e-07
-0.082568 -9.921793e-07
-0.082318 -9.914292e-07
-0.082068 -9.906005e-07
-0.081818 -9.896934e-07
-0.081568 -9.887081e-07
-0.081318 -9.876450e-07
-0.081068 -9.865044e-07
-0.080818 -9.852865e-07
-0.080568 -9.839918e-07
-0.080318 -9.826207e-07
-0.080068 -9.811735e-07
-0.079818 -9.796508e-07
-0.079568 -9.780528e-07
-0.079318 -9.763802e-07
-0.079068 -9.746335e-07
-0.078818 -9.728131e-07
-0.078568 -9.709196e-07
-0.078318 -9.689535e-07
-0.078068 -9.669155e-07
-0.077818 -9.648062e-07
-0.077568 -9.626262e-07
-0.077318 -9.603761e-07
-0.077068 -9.580566e-07
-0.076818 -9.556684e-07
-0.076568 -9.532123e-07
-0.076318 -9.506889e-07
-0.076068 -9.480991e-07
-0.075818 -9.454435e-07
-0.075568 -9.427231e-07
-0.075318 -9.399385e-07
-0.075068 -9.370907e-07
-0.074818 -9.341804e-07
-0.074568 -9.312086e-07
-0.074318 -9.281762e-07
-0.074068 -9.250839e-07
-0.073818 -9.219329e-07
-0.073568 -9.187240e-07
-0.073318 -9.154581e-07
-0.073068 -9.121363e-07
-0.072818 -9.087595e-07
-0.072568 -9.053287e-07
-0.072318 -9.018450e-07
-0.072068 -8.983094e-07
-0.071818 -8.947230e-07
-0.071568 -8.910867e-07
-0.071318 -8.874018e-07
-0.071068 -8.836693e-07
-0.070818 -8.798902e-07
-0.070568 -8.760658e-07
-0.070318 -8.721972e-07
-0.070068 -8.682854e-07
-0.069818 -8.643318e-07
-0.069568 -8.603374e-07
-0.069318 -8.563034e-07
-0.069068 -8.522311e-07
-0.068818 -8.481216e-07
-0.068568 -8.439761e-07
-0.068318 -8.397959e-07
-0.068068 -8.355823e-07
-0.067818 -8.313364e-07
-0.067568 -8.270595e-07
-0.067318 -8.227529e-07
-0.067068 -8.184179e-07
-0.066818 -8.140557e-07
-0.066568 -8.096676e-07
-0.066318 -8.052549e-07
-0.066068 -8.008190e-07
-0.065818 -7.963610e-07
-0.065568 -7.918824e-07
-0.065318 -7.873845e-07
-0.065068 -7.828685e-07
-0.064818 -7.783359e-07
-0.064568 -7.737878e-07
-0.064318 -7.692258e-07
-0.064068 -7.646510e-07
-0.063818 -7.600649e-07
-0.063568 -7.554688e-07
-0.063318 -7.508641e-07
-0.063068 -7.462520e-07
-0.062818 -7.416340e-07
-0.062568 -7.370113e-07
-0.062318 -7.323854e-07
-0.062068 -7.277576e-07
-0.061818 -7.231292e-07
-0.061568 -7.185017e-07
-0.061318 -7.138762e-07
-0.061068 -7.092542e-07
-0.060818 -7.046371e-07
-0.060568 -7.000261e-07
-0.060318 -6.954227e-07
-0.060068 -6.908280e-07
-0.059818 -6.862436e-07
-0.059568 -6.816707e-07
-0.059318 -6.771106e-07
-0.059068 -6.725646e-07
-0.058818 -6.680341e-07
-0.058568 -6.635204e-07
-0.058318 -6.590247e-07
-0.058068 -6.545484e-07
-0.057818 -6.500928e-07
-0.057568 -6.456590e-07
-0.057318 -6.412486e-07
-0.057068 -6.368625e-07
-0.056818 -6.325022e-07
-0.056568 -6.281689e-07
-0.056318 -6.238638e-07
-0.056068 -6.195882e-07
-0.055818 -6.153432e-07
-0.055568 -6.111302e-07
-0.055318 -6.069502e-07
-0.055068 -6.028044e-07
-0.054818 -5.986941e-07
-0.054568 -5.946205e-07
-0.054318 -5.905846e-07
-0.054068 -5.865876e-07
-0.053818 -5.826306e-07
-0.053568 -5.787148e-07
-0.053318 -5.748412e-07
-0.053068 -5.710110e-07
-0.052818 -5.672252e-07
-0.052568 -5.634849e-07
-0.052318 -5.597911e-07
-0.052068 -5.561448e-07
-0.051818 -5.525471e-07
-0.051568 -5.489990e-07
-0.051318 -5.455015e-07
-0.051068 -5.420554e-07
-0.050818 -5.386619e-07
-0.050568 -5.353217e-07
-0.050318 -5.320359e-07
-0.050068 -5.288053e-07
-0.049818 -5.256308e-07
-0.049568 -5.225132e-07
-0.049318 -5.194535e-07
-0.049068 -5.164525e-07
-0.048818 -5.135109e-07
-0.048568 -5.106296e-07
-0.048318 -5.078093e-07
-0.048068 -5.050507e-07
-0.047818 -5.023548e-07
-0.047568 -4.997220e-07
-0.047318 -4.971532e-07
-0.047068 -4.946489e-07
-0.046818 -4.922100e-07
-0.046568 -4.898369e-07
-0.046318 -4.875303e-07
-0.046068 -4.852909e-07
-0.045818 -4.831191e-07
-0.045568 -4.810155e-07
-0.045318 -4.789807e-07
-0.045068 -4.770152e-07
-0.044818 -4.751194e-07
-0.044568 -4.732939e-07
-0.044318 -4.715390e-07
-0.044068 -4.698553e-07
-0.043818 -4.682430e-07
-0.043568 -4.667026e-07
-0.043318 -4.652344e-07
-0.043068 -4.638387e-07
-0.042818 -4.625160e-07
-0.042568 -4.612664e-07
-0.042318 -4.600902e-07
-0.042068 -4.589878e-07
-0.041818 -4.579592e-07
-0.041568 -4.570047e-07
-0.041318 -4.561245e-07
-0.041068 -4.553187e-07
-0.040818 -4.545875e-07
-0.040568 -4.539310e-07
-0.040318 -4.533492e-07
-0.040068 -4.528422e-07
-0.039818 -4.524101e-07
-0.039568 -4.520529e-07
-0.039318 -4.517705e-07
-0.039068 -4.515630e-07
-0.038818 -4.514302e-07
-0.038568 -4.513722e-07
-0.038318 -4.513888e-07
-0.038068 -4.514799e-07
-0.037818 -4.516454e-07
-0.037568 -4.518850e-07
-0.037318 -4.521987e-07
-0.037068 -4.525861e-07
-0.036818 -4.530472e-07
-0.036568 -4.535815e-07
-0.036318 -4.541889e-07
-0.036068 -4.548690e-07
-0.035818 -4.556215e-07
-0.035568 -4.564461e-07
-0.035318 -4.573425e-07
-0.035068 -4.583101e-07
-0.034818 -4.593487e-07
-0.034568 -4.604578e-07
-0.034318 -4.616369e-07
-0.034068 -4.628856e-07
-0.033818 -4.642034e-07
-0.033568 -4.655898e-07
-0.033318 -4.670442e-07
-0.033068 -4.685661e-07
-0.032818 -4.701549e-07
-0.032568 -4.718101e-07
-0.032318 -4.735310e-07
-0.032068 -4.753169e-07
-0.031818 -4.771673e-07
-0.031568 -4.790815e-07
-0.031318 -4.810588e-07
-0.031068 -4.830984e-07
-0.030818 -4.851996e-07
-0.030568 -4.873618e-07
-0.030318 -4.895841e-07
-0.030068 -4.918657e-07
-0.029818 -4.942059e-07
-0.029568 -4.966039e-07
-0.029318 -4.990588e-07
-0.029068 -5.015697e-07
-0.028818 -5.041358e-07
-0.028568 -5.067563e-07
-0.028318 -5.094302e-07
-0.028068 -5.121566e-07
-0.027818 -5.149346e-07
-0.027568 -5.177632e-07
-0.027318 -5.206415e-07
-0.027068 -5.235685e-07
-0.026818 -5.265432e-07
-0.026568 -5.295647e-07
-0.026318 -5.326319e-07
-0.026068 -5.357438e-07
-0.025818 -5.388993e-07
-0.025568 -5.420974e-07
-0.025318 -5.453371e-07
-0.025068 -5.486172e-07
-0.024818 -5.519367e-07
-0.024568 -5.552944e-07
-0.024318 -5.586893e-07
-0.024068 -5.621203e-07
-0.023818 -5.655862e-07
-0.023568 -5.690858e-07
-0.023318 -5.726181e-07
-0.023068 -5.761819e-07
-0.022818 -5.797759e-07
-0.022568 -5.833991e-07
-0.022318 -5.870502e-07
-0.022068 -5.907281e-07
-0.021818 -5.944315e-07
-0.021568 -5.981593e-07
-0.021318 -6.019102e-07
-0.021068 -6.056831e-07
-0.020818 -6.094766e-07
-0.020568 -6.132896e-07
-0.020318 -6.171209e-07
-0.020068 -6.209692e-07
-0.019818 -6.248332e-07
-0.019568 -6.287117e-07
-0.019318 -6.326035e-07
-0.019068 -6.365073e-07
-0.018818 -6.404219e-07
-0.018568 -6.443460e-07
-0.018318 -6.482783e-07
-0.018068 -6.522176e-07
-0.017818 -6.561626e-07
-0.017568 -6.601121e-07
-0.017318 -6.640648e-07
-0.017068 -6.680194e-07
-0.016818 -6.719747e-07
-0.016568 -6.759294e-07
-0.016318 -6.798822e-07
-0.016068 -6.838320e-07
-0.015818 -6.877773e-07
-0.015568 -6.917171e-07
-0.015318 -6.956500e-07
-0.015068 -6.995748e-07
-0.014818 -7.034902e-07
-0.014568 -7.073950e-07
-0.014318 -7.112880e-07
-0.014068 -7.151680e-07
-0.013818 -7.190336e-07
-0.013568 -7.228837e-07
-0.013318 -7.267171e-07
-0.013068 -7.305326e-07
-0.012818 -7.343290e-07
-0.012568 -7.381050e-07
-0.012318 -7.418595e-07
-0.012068 -7.455913e-07
-0.011818 -7.492993e-07
-0.011568 -7.529823e-07
-0.011318 -7.566390e-07
-0.011068 -7.602685e-07
-0.010818 -7.638695e-07
-0.010568 -7.674409e-07
-0.010318 -7.709817e-07
-0.010068 -7.744907e-07
-0.009818 -7.779667e-07
-0.009568 -7.814089e-07
-0.009318 -7.848160e-07
-0.009068 -7.881870e-07
-0.008818 -7.915209e-07
-0.008568 -7.948167e-07
-0.008318 -7.980733e-07
-0.008068 -8.012897e-07
-0.007818 -8.044649e-07
-0.007568 -8.075981e-07
-0.007318 -8.106881e-07
-0.007068 -8.137341e-07
-0.006818 -8.167352e-07
-0.006568 -8.196903e-07
-0.006318 -8.225987e-07
-0.006068 -8.254595e-07
-0.005818 -8.282717e-07
-0.005568 -8.310346e-07
-0.005318 -8.337473e-07
-0.005068 -8.364090e-07
-0.004818 -8.390190e-07
-0.004568 -8.415763e-07
-0.004318 -8.440804e-07
-0.004068 -8.465304e-07
-0.003818 -8.489256e-07
-0.003568 -8.512654e-07
-0.003318 -8.535490e-07
-0.003068 -8.557758e-07
-0.002818 -8.579452e-07
-0.002568 -8.600566e-07
-0.002318 -8.621094e-07
-0.002068 -8.641029e-07
-0.001818 -8.660367e-07
-0.001568 -8.679103e-07
-0.001318 -8.697231e-07
-0.001068 -8.714746e-07
-0.000818 -8.731644e-07
-0.000568 -8.747921e-07
-0.000318 -8.763573e-07
-0.000068 -8.778596e-07
0.000182 -8.792986e-07
0.000432 -8.806740e-07
0.000682 -8.819855e-07
0.000932 -8.832328e-07
0.001182 -8.844157e-07
0.001432 -8.855340e-07
0.001682 -8.865874e-07
0.001932 -8.875759e-07
0.002182 -8.884992e-07
0.002432 -8.893572e-07
0.002682 -8.901499e-07
0.002932 -8.908773e-07
0.003182 -8.915392e-07
0.003432 -8.921358e-07
0.003682 -8.926670e-07
0.003932 -8.931330e-07
0.004182 -8.935338e-07
0.004432 -8.938696e-07
0.004682 -8.941406e-07
0.004932 -8.943469e-07
0.005182 -8.944889e-07
0.005432 -8.945668e-07
0.005682 -8.945809e-07
0.005932 -8.945316e-07
0.006182 -8.944193e-07
0.006432 -8.942444e-07
0.006682 -8.940073e-07
0.006932 -8.937087e-07
0.007182 -8.933490e-07
0.007432 -8.929288e-07
0.007682 -8.924488e-07
0.007932 -8.919097e-07
0.008182 -8.913122e-07
0.008432 -8.906570e-07
0.008682 -8.899450e-07
0.008932 -8.891770e-07
0.009182 -8.883540e-07
0.009432 -8.874769e-07
0.009682 -8.865468e-07
0.009932 -8.855647e-07
0.010182 -8.845318e-07
0.010432 -8.834491e-07
0.010682 -8.823181e-07
0.010932 -8.811399e-07
0.011182 -8.799160e-07
0.011432 -8.786477e-07
0.011682 -8.773366e-07
0.011932 -8.759841e-07
0.012182 -8.745920e-07
0.012432 -8.731619e-07
0.012682 -8.716956e-07
0.012932 -8.701949e-07
0.013182 -8.686617e-07
0.013432 -8.670980e-07
0.013682 -8.655060e-07
0.013932 -8.638877e-07
0.014182 -8.622454e-07
0.014432 -8.605815e-07
0.014682 -8.588983e-07
0.014932 -8.571985e-07
0.015182 -8.554845e-07
0.015432 -8.537593e-07
0.015682 -8.520255e-07
0.015932 -8.502861e-07
0.016182 -8.485442e-07
0.016432 -8.468030e-07
0.016682 -8.450658e-07
0.016932 -8.433359e-07
0.017182 -8.416169e-07
0.017432 -8.399125e-07
0.017682 -8.382266e-07
0.017932 -8.365631e-07
0.018182 -8.349261e-07
0.018432 -8.333198e-07
0.018682 -8.317489e-07
0.018932 -8.302177e-07
0.019182 -8.287311e-07
0.019432 -8.272941e-07
0.019682 -8.259118e-07
0.019932 -8.245895e-07
0.020182 -8.233327e-07
0.020432 -8.221473e-07
0.020682 -8.210391e-07
0.020932 -8.200143e-07
0.021182 -8.190793e-07
0.021432 -8.182407e-07
0.021682 -8.175056e-07
0.021932 -8.168809e-07
0.022182 -8.163741e-07
0.022432 -8.159930e-07
0.022682 -8.157455e-07
0.022932 -8.156398e-07
0.023182 -8.156846e-07
0.023432 -8.158888e-07
0.023682 -8.162616e-07
0.023932 -8.168126e-07
0.024182 -8.175517e-07
0.024432 -8.184894e-07
0.024682 -8.196362e-07
0.024932 -8.210032e-07
0.025182 -8.226021e-07
0.025432 -8.244447e-07
0.025682 -8.265434e-07
0.025932 -8.289110e-07
0.026182 -8.315610e-07
0.026432 -8.345071e-07
0.026682 -8.377636e-07
0.026932 -8.413455e-07
0.027182 -8.452682e-07
0.027432 -8.495476e-07
0.027682 -8.542004e-07
0.027932 -8.592437e-07
0.028182 -8.646954e-07
0.028432 -8.705740e-07
0.028682 -8.768987e-07
0.028932 -8.836894e-07
0.029182 -8.909667e-07
0.029432 -8.987520e-07
0.029682 -9.070675e-07
0.029932 -9.159361e-07
0.030182 -9.253818e-07
0.030432 -9.354291e-07
0.030682 -9.461037e-07
0.030932 -9.574321e-07
0.031182 -9.694419e-07
0.031432 -9.821616e-07
0.031682 -9.956207e-07
0.031932 -1.009850e-06
0.032182 -1.024881e-06
0.032432 -1.040746e-06
0.032682 -1.057480e-06
0.032932 -1.075118e-06
0.033182 -1.093697e-06
0.033432 -1.113254e-06
0.033682 -1.133828e-06
0.033932 -1.155461e-06
0.034182 -1.178194e-06
0.034432 -1.202071e-06
0.034682 -1.227136e-06
0.034932 -1.253437e-06
0.035182 -1.281022e-06
0.035432 -1.309941e-06
0.035682 -1.340246e-06
0.035932 -1.371989e-06
0.036182 -1.405228e-06
0.036432 -1.440018e-06
0.036682 -1.476421e-06
0.036932 -1.514496e-06
0.037182 -1.554307e-06
0.037432 -1.595921e-06
0.037682 -1.639405e-06
0.037932 -1.684829e-06
0.038182 -1.732267e-06
0.038432 -1.781793e-06
0.038682 -1.833485e-06
0.038932 -1.887424e-06
0.039182 -1.943692e-06
0.039432 -2.002376e-06
0.039682 -2.063563e-06
0.039932 -2.127347e-06
0.040182 -2.193821e-06
0.040432 -2.263083e-06
0.040682 -2.335234e-06
0.040932 -2.410379e-06
0.041182 -2.488626e-06
0.041432 -2.570086e-06
0.041682 -2.654873e-06
0.041932 -2.743107e-06
0.042182 -2.834910e-06
0.042432 -2.930408e-06
0.042682 -3.029732e-06
0.042932 -3.133016e-06
0.043182 -3.240400e-06
0.043432 -3.352027e-06
0.043682 -3.468044e-06
0.043932 -3.588604e-06
0.044182 -3.713865e-06
0.044432 -3.843987e-06
0.044682 -3.979140e-06
0.044932 -4.119494e-06
0.045182 -4.265227e-06
0.045432 -4.416524e-06
0.045682 -4.573571e-06
0.045932 -4.736564e-06
0.046182 -4.905703e-06
0.046432 -5.081194e-06
0.046682 -5.263249e-06
0.046932 -5.452088e-06
0.047182 -5.647936e-06
0.047432 -5.851024e-06
0.047682 -6.061592e-06
0.047932 -6.279885e-06
0.048182 -6.506155e-06
0.048432 -6.740665e-06
0.048682 -6.983680e-06
0.048932 -7.235478e-06
0.049182 -7.496340e-06
0.049432 -7.766558e-06
0.049682 -8.046433e-06
0.049932 -8.336272e-06
0.050182 -8.636392e-06
0.050432 -8.947119e-06
0.050682 -9.268787e-06
0.050932 -9.601739e-06
0.051182 -9.946330e-06
0.051432 -1.030292e-05
0.051682 -1.067189e-05
0.051932 -1.105361e-05
0.052182 -1.144848e-05
0.052432 -1.185691e-05
0.052682 -1.227931e-05
0.052932 -1.271609e-05
0.053182 -1.316771e-05
0.053432 -1.363461e-05
0.053682 -1.411724e-05
0.053932 -1.461608e-05
0.054182 -1.513161e-05
0.054432 -1.566433e-05
0.054682 -1.621474e-05
0.054932 -1.678338e-05
0.055182 -1.737076e-05
0.055432 -1.797744e-05
0.055682 -1.860398e-05
0.055932 -1.925096e-05
0.056182 -1.991896e-05
0.056432 -2.060858e-05
0.056682 -2.132045e-05
0.056932 -2.205520e-05
0.057182 -2.281346e-05
0.057432 -2.359592e-05
0.057682 -2.440323e-05
0.057932 -2.523611e-05
0.058182 -2.609525e-05
0.058432 -2.698139e-05
0.058682 -2.789527e-05
0.058932 -2.883764e-05
0.059182 -2.980929e-05
0.059432 -3.081100e-05
0.059682 -3.184359e-05
0.059932 -3.290789e-05
0.060182 -3.400474e-05
0.060432 -3.513501e-05
0.060682 -3.629959e-05
0.060932 -3.749937e-05
0.061182 -3.873528e-05
0.061432 -4.000827e-05
0.061682 -4.131928e-05
0.061932 -4.266930e-05
0.062182 -4.405933e-05
0.062432 -4.549039e-05
0.062682 -4.696352e-05
0.062932 -4.847979e-05
0.063182 -5.004027e-05
0.063432 -5.164606e-05
0.063682 -5.329829e-05
0.063932 -5.499811e-05
0.064182 -5.674668e-05
0.064432 -5.854519e-05
0.064682 -6.039485e-05
0.064932 -6.229690e-05
0.065182 -6.425258e-05
0.065432 -6.626318e-05
0.065682 -6.832999e-05
0.065932 -7.045434e-05
0.066182 -7.263758e-05
0.066432 -7.488106e-05
0.066682 -7.718619e-05
0.066932 -7.955437e-05
0.067182 -8.198704e-05
0.067432 -8.448566e-05
0.067682 -8.705172e-05
0.067932 -8.968673e-05
0.068182 -9.239220e-05
0.068432 -9.516971e-05
0.068682 -9.802082e-05
0.068932 -1.009471e-04
0.069182 -1.039503e-04
0.069432 -1.070319e-04
0.069682 -1.101937e-04
0.069932 -1.134373e-04
0.070182 -1.167644e-04
0.070432 -1.201769e-04
0.070682 -1.236764e-04
0.070932 -1.272648e-04
0.071182 -1.309438e-04
0.071432 -1.347154e-04
0.071682 -1.385812e-04
0.071932 -1.425433e-04
0.072182 -1.466035e-04
0.072432 -1.507637e-04
0.072682 -1.550259e-04
0.072932 -1.593920e-04
0.073182 -1.638641e-04
0.073432 -1.684440e-04
0.073682 -1.731339e-04
0.073932 -1.779358e-04
0.074182 -1.828517e-04
0.074432 -1.878837e-04
0.074682 -1.930340e-04
0.074932 -1.983046e-04
0.075182 -2.036977e-04
0.075432 -2.092154e-04
0.075682 -2.148598e-04
0.075932 -2.206333e-04
0.076182 -2.265379e-04
0.076432 -2.325758e-04
0.076682 -2.387494e-04
0.076932 -2.450608e-04
0.077182 -2.515123e-04
0.077432 -2.581061e-04
0.077682 -2.648445e-04
0.077932 -2.717299e-04
0.078182 -2.787644e-04
0.078432 -2.859504e-04
0.078682 -2.932902e-04
0.078932 -3.007861e-04
0.079182 -3.084404e-04
0.079432 -3.162554e-04
0.079682 -3.242335e-04
0.079932 -3.323769e-04
0.080182 -3.406881e-04
0.080432 -3.491693e-04
0.080682 -3.578228e-04
0.080932 -3.666510e-04
0.081182 -3.756561e-04
0.081432 -3.848406e-04
0.081682 -3.942066e-04
0.081932 -4.037565e-04
0.082182 -4.134926e-04
0.082432 -4.234171e-04
0.082682 -4.335323e-04
0.082932 -4.438404e-04
0.083182 -4.543437e-04
0.083432 -4.650443e-04
0.083682 -4.759446e-04
0.083932 -4.870465e-04
0.084182 -4.983524e-04
0.084432 -5.098642e-04
0.084682 -5.215842e-04
0.084932 -5.335143e-04
0.085182 -5.456566e-04
0.085432 -5.580132e-04
0.085682 -5.705859e-04
0.085932 -5.833768e-04
0.086182 -5.963877e-04
0.086432 -6.096204e-04
0.086682 -6.230769e-04
0.086932 -6.367589e-04
0.087182 -6.506681e-04
0.087432 -6.648061e-04
0.087682 -6.791747e-04
0.087932 -6.937754e-04
0.088182 -7.086097e-04
0.088432 -7.236790e-04
0.088682 -7.389849e-04
0.088932 -7.545286e-04
0.089182 -7.703114e-04
0.089432 -7.863345e-04
0.089682 -8.025991e-04
0.089932 -8.191062e-04
0.090182 -8.358569e-04
0.090432 -8.528520e-04
0.090682 -8.700924e-04
0.090932 -8.875789e-04
0.091182 -9.053121e-04
0.091432 -9.232927e-04
0.091682 -9.415211e-04
0.091932 -9.599977e-04
0.092182 -9.787230e-04
0.092432 -9.976970e-04
0.092682 -1.016920e-03
0.092932 -1.036392e-03
0.093182 -1.056112e-03
0.093432 -1.076082e-03
0.093682 -1.096300e-03
0.093932 -1.116765e-03
0.094182 -1.137478e-03
0.094432 -1.158438e-03
0.094682 -1.179644e-03
0.094932 -1.201095e-03
0.095182 -1.222790e-03
0.095432 -1.244728e-03
0.095682 -1.266908e-03
0.095932 -1.289328e-03
0.096182 -1.311986e-03
0.096432 -1.334882e-03
0.096682 -1.358013e-03
0.096932 -1.381378e-03
0.097182 -1.404973e-03
0.097432 -1.428798e-03
0.097682 -1.452849e-03
0.097932 -1.477124e-03
0.098182 -1.501620e-03
0.098432 -1.526335e-03
0.098682 -1.551265e-03
0.098932 -1.576408e-03
0.099182 -1.601759e-03
0.099432 -1.627315e-03
0.099682 -1.653074e-03
0.099932 -1.679030e-03
0.100182 -1.705180e-03
0.100432 -1.731519e-03
0.100682 -1.758044e-03
0.100932 -1.784750e-03
0.101182 -1.811631e-03
0.101432 -1.838684e-03
0.101682 -1.865903e-03
0.101932 -1.893282e-03
0.102182 -1.920817e-03
0.102432 -1.948501e-03
0.102682 -1.976330e-03
0.102932 -2.004296e-03
0.103182 -2.032394e-03
0.103432 -2.060617e-03
0.103682 -2.088960e-03
0.103932 -2.117414e-03
0.104182 -2.145973e-03
0.104432 -2.174630e-03
0.104682 -2.203378e-03
0.104932 -2.232208e-03
0.105182 -2.261115e-03
0.105432 -2.290088e-03
0.105682 -2.319121e-03
0.105932 -2.348205e-03
0.106182 -2.377332e-03
0.106432 -2.406493e-03
0.106682 -2.435679e-03
0.106932 -2.464880e-03
0.107182 -2.494089e-03
0.107432 -2.523295e-03
0.107682 -2.552489e-03
0.107932 -2.581661e-03
0.108182 -2.610801e-03
0.108432 -2.639898e-03
0.108682 -2.668944e-03
0.108932 -2.697926e-03
0.109182 -2.726834e-03
0.109432 -2.755658e-03
0.109682 -2.784387e-03
0.109932 -2.813008e-03
0.110182 -2.841511e-03
0.110432 -2.869885e-03
0.110682 -2.898117e-03
0.110932 -2.926195e-03
0.111182 -2.954109e-03
0.111432 -2.981844e-03
0.111682 -3.009390e-03
0.111932 -3.036734e-03
0.112182 -3.063862e-03
0.112432 -3.090763e-03
0.112682 -3.117423e-03
0.112932 -3.143829e-03
0.113182 -3.169969e-03
0.113432 -3.195828e-03
0.113682 -3.221394e-03
0.113932 -3.246653e-03
0.114182 -3.271592e-03
0.114432 -3.296196e-03
0.114682 -3.320452e-03
0.114932 -3.344346e-03
0.115182 -3.367864e-03
0.115432 -3.390992e-03
0.115682 -3.413716e-03
0.115932 -3.436022e-03
0.116182 -3.457895e-03
0.116432 -3.479321e-03
0.116682 -3.500286e-03
0.116932 -3.520775e-03
0.117182 -3.540773e-03
0.117432 -3.560267e-03
0.117682 -3.579242e-03
0.117932 -3.597684e-03
0.118182 -3.615577e-03
0.118432 -3.632907e-03
0.118682 -3.649660e-03
0.118932 -3.665821e-03
0.119182 -3.681376e-03
0.119432 -3.696310e-03
0.119682 -3.710610e-03
0.119932 -3.724259e-03
0.120182 -3.737245e-03
0.120432 -3.749553e-03
0.120682 -3.761168e-03
0.120932 -3.772077e-03
0.121182 -3.782266e-03
0.121432 -3.791720e-03
0.121682 -3.800426e-03
0.121932 -3.808370e-03
0.122182 -3.815539e-03
0.122432 -3.821919e-03
0.122682 -3.827497e-03
0.122932 -3.832259e-03
0.123182 -3.836192e-03
0.123432 -3.839284e-03
0.123682 -3.841523e-03
0.123932 -3.842894e-03
0.124182 -3.843387e-03
0.124432 -3.842989e-03
0.124682 -3.841688e-03
0.124932 -3.839472e-03
0.125182 -3.836331e-03
0.125432 -3.832252e-03
0.125682 -3.827225e-03
0.125932 -3.821239e-03
0.126182 -3.814283e-03
0.126432 -3.806348e-03
0.126682 -3.797423e-03
0.126932 -3.787499e-03
0.127182 -3.776567e-03
0.127432 -3.764617e-03
0.127682 -3.751641e-03
0.127932 -3.737630e-03
0.128182 -3.722576e-03
0.128432 -3.706472e-03
0.128682 -3.689310e-03
0.128932 -3.671083e-03
0.129182 -3.651785e-03
0.129432 -3.631409e-03
0.129682 -3.609949e-03
0.129932 -3.587400e-03
0.130182 -3.563757e-03
0.130432 -3.539014e-03
0.130682 -3.513168e-03
0.130932 -3.486214e-03
0.131182 -3.458150e-03
0.131432 -3.428971e-03
0.131682 -3.398676e-03
0.131932 -3.367262e-03
0.132182 -3.334727e-03
0.132432 -3.301071e-03
0.132682 -3.266291e-03
0.132932 -3.230389e-03
0.133182 -3.193363e-03
0.133432 -3.155215e-03
0.133682 -3.115945e-03
0.133932 -3.075554e-03
0.134182 -3.034046e-03
0.134432 -2.991422e-03
0.134682 -2.947685e-03
0.134932 -2.902839e-03
0.135182 -2.856887e-03
0.135432 -2.809835e-03
0.135682 -2.761686e-03
0.135932 -2.712447e-03
0.136182 -2.662123e-03
0.136432 -2.610721e-03
0.136682 -2.558247e-03
0.136932 -2.504710e-03
0.137182 -2.450117e-03
0.137432 -2.394477e-03
0.137682 -2.337798e-03
0.137932 -2.280090e-03
0.138182 -2.221364e-03
0.138432 -2.161629e-03
0.138682 -2.100897e-03
0.138932 -2.039179e-03
0.139182 -1.976488e-03
0.139432 -1.912835e-03
0.139682 -1.848234e-03
0.139932 -1.782699e-03
0.140182 -1.716243e-03
0.140432 -1.648882e-03
0.140682 -1.580629e-03
0.140932 -1.511501e-03
0.141182 -1.441514e-03
0.141432 -1.370683e-03
0.141682 -1.299027e-03
0.141932 -1.226561e-03
0.142182 -1.153305e-03
0.142432 -1.079277e-03
0.142682 -1.004495e-03
0.142932 -9.289777e-04
0.143182 -8.527459e-04
0.143432 -7.758192e-04
0.143682 -6.982181e-04
0.143932 -6.199636e-04
0.144182 -5.410768e-04
0.144432 -4.615794e-04
0.144682 -3.814936e-04
0.144932 -3.008417e-04
0.145182 -2.196466e-04
0.145432 -1.379315e-04
0.145682 -5.571990e-05
0.145932 2.696437e-05
0.146182 1.100971e-04
0.146432 1.936538e-04
0.146682 2.776096e-04
0.146932 3.619394e-04
0.147182 4.466178e-04
0.147432 5.316192e-04
0.147682 6.169176e-04
0.147932 7.024868e-04
0.148182 7.883004e-04
0.148432 8.743317e-04
0.148682 9.605539e-04
0.148932 1.046940e-03
0.149182 1.133462e-03
0.149432 1.220094e-03
0.149682 1.306807e-03
0.149932 1.393574e-03
0.150182 1.480367e-03
0.150432 1.567158e-03
0.150682 1.653919e-03
0.150932 1.740621e-03
0.151182 1.827237e-03
0.151432 1.913738e-03
0.151682 2.000095e-03
0.151932 2.086280e-03
0.152182 2.172266e-03
0.152432 2.258022e-03
0.152682 2.343521e-03
0.152932 2.428735e-03
0.153182 2.513635e-03
0.153432 2.598192e-03
0.153682 2.682379e-03
0.153932 2.766167e-03
0.154182 2.849528e-03
0.154432 2.932433e-03
0.154682 3.014856e-03
0.154932 3.096769e-03
0.155182 3.178143e-03
0.155432 3.258952e-03
0.155682 3.339167e-03
0.155932 3.418763e-03
0.156182 3.497712e-03
0.156432 3.575987e-03
0.156682 3.653563e-03
0.156932 3.730413e-03
0.157182 3.806511e-03
0.157432 3.881831e-03
0.157682 3.956349e-03
0.157932 4.030038e-03
0.158182 4.102876e-03
0.158432 4.174836e-03
0.158682 4.245896e-03
0.158932 4.316031e-03
0.159182 4.385218e-03
0.159432 4.453435e-03
0.159682 4.520658e-03
0.159932 4.586866e-03
0.160182 4.652036e-03
0.160432 4.716148e-03
0.160682 4.779181e-03
0.160932 4.841115e-03
0.161182 4.901928e-03
0.161432 4.961602e-03
0.161682 5.020119e-03
0.161932 5.077458e-03
0.162182 5.133603e-03
0.162432 5.188535e-03
0.162682 5.242238e-03
0.162932 5.294696e-03
0.163182 5.345891e-03
0.163432 5.395810e-03
0.163682 5.444436e-03
0.163932 5.491756e-03
0.164182 5.537756e-03
0.164432 5.582423e-03
0.164682 5.625743e-03
0.164932 5.667706e-03
0.165182 5.708299e-03
0.165432 5.747511e-03
0.165682 5.785333e-03
0.165932 5.821754e-03
0.166182 5.856765e-03
0.166432 5.890359e-03
0.166682 5.922526e-03
0.166932 5.953260e-03
0.167182 5.982554e-03
0.167432 6.010402e-03
0.167682 6.036798e-03
0.167932 6.061738e-03
0.168182 6.085217e-03
0.168432 6.107232e-03
0.168682 6.127780e-03
0.168932 6.146858e-03
0.169182 6.164464e-03
0.169432 6.180598e-03
0.169682 6.195259e-03
0.169932 6.208446e-03
0.170182 6.220162e-03
0.170432 6.230406e-03
0.170682 6.239181e-03
0.170932 6.246489e-03
0.171182 6.252334e-03
0.171432 6.256718e-03
0.171682 6.259647e-03
0.171932 6.261125e-03
0.172182 6.261158e-03
0.172432 6.259751e-03
0.172682 6.256912e-03
0.172932 6.252647e-03
0.173182 6.246964e-03
0.173432 6.239872e-03
0.173682 6.231378e-03
0.173932 6.221494e-03
0.174182 6.210227e-03
0.174432 6.197589e-03
0.174682 6.183591e-03
0.174932 6.168244e-03
0.175182 6.151561e-03
0.175432 6.133552e-03
0.175682 6.114232e-03
0.175932 6.093614e-03
0.176182 6.071711e-03
0.176432 6.048538e-03
0.176682 6.024109e-03
0.176932 5.998441e-03
0.177182 5.971547e-03
0.177432 5.943445e-03
0.177682 5.914150e-03
0.177932 5.883680e-03
0.178182 5.852052e-03
0.178432 5.819283e-03
0.178682 5.785391e-03
0.178932 5.750394e-03
0.179182 5.714311e-03
0.179432 5.677161e-03
0.179682 5.638963e-03
0.179932 5.599736e-03
0.180182 5.559501e-03
0.180432 5.518277e-03
0.180682 5.476085e-03
0.180932 5.432945e-03
0.181182 5.388879e-03
0.181432 5.343907e-03
0.181682 5.298051e-03
0.181932 5.251331e-03
0.182182 5.203770e-03
0.182432 5.155390e-03