-1.200000e+01 0.000000e+00
-1.199000e+01 0.000000e+00
-1.198000e+01 0.000000e+00
-1.197000e+01 0.000000e+00
-1.196000e+01 7.275689e-30
-1.195000e+01 -2.642941e-26
-1.194000e+01 -2.852795e-25
-1.193000e+01 -1.671690e-24
-1.192000e+01 -7.045624e-24
-1.191000e+01 -2.388692e-23
-1.190000e+01 -6.912943e-23
-1.189000e+01 -1.770850e-22
-1.188000e+01 -4.113386e-22
-1.187000e+01 -8.812552e-22
-1.186000e+01 -1.763238e-21
-1.185000e+01 -3.326062e-21
-1.184000e+01 -5.958478e-21
-1.183000e+01 -1.019588e-20
-1.182000e+01 -1.674115e-20
-1.181000e+01 -2.647325e-20
-1.180000e+01 -4.043509e-20
-1.179000e+01 -5.979150e-20
-1.178000e+01 -8.574659e-20
-1.177000e+01 -1.194103e-19
-1.176000e+01 -1.616049e-19
-1.175000e+01 -2.126039e-19
-1.174000e+01 -2.718005e-19
-1.173000e+01 -3.373074e-19
-1.172000e+01 -4.054958e-19
-1.171000e+01 -4.704911e-19
-1.170000e+01 -5.236506e-19
-1.169000e+01 -5.530579e-19
-1.168000e+01 -5.430807e-19
-1.167000e+01 -4.740437e-19
-1.166000e+01 -3.220808e-19
-1.165000e+01 -5.923100e-20
-1.164000e+01 3.461520e-19
-1.163000e+01 9.286105e-19
-1.162000e+01 1.724356e-18
-1.161000e+01 2.769558e-18
-1.160000e+01 4.098120e-18
-1.159000e+01 5.738942e-18
-1.158000e+01 7.712696e-18
-1.157000e+01 1.002817e-17
-1.156000e+01 1.267832e-17
-1.155000e+01 1.563608e-17
-1.154000e+01 1.885025e-17
-1.153000e+01 2.224155e-17
-1.152000e+01 2.569921e-17
-1.151000e+01 2.907831e-17
-1.150000e+01 3.219817e-17
-1.149000e+01 3.484223e-17
-1.148000e+01 3.675947e-17
-1.147000e+01 3.766795e-17
-1.146000e+01 3.726038e-17
-1.145000e+01 3.521216e-17
-1.144000e+01 3.119181e-17
-1.143000e+01 2.487373e-17
-1.142000e+01 1.595330e-17
-1.141000e+01 4.163929e-18
-1.140000e+01 -1.070434e-17
-1.139000e+01 -2.878519e-17
-1.138000e+01 -5.011607e-17
-1.137000e+01 -7.461871e-17
-1.136000e+01 -1.020810e-16
-1.135000e+01 -1.321412e-16
-1.134000e+01 -1.642759e-16
-1.133000e+01 -1.977919e-16
-1.132000e+01 -2.318242e-16
-1.131000e+01 -2.653395e-16
-1.130000e+01 -2.971482e-16
-1.129000e+01 -3.259228e-16
-1.128000e+01 -3.502254e-16
-1.127000e+01 -3.685426e-16
-1.126000e+01 -3.793290e-16
-1.125000e+01 -3.810575e-16
-1.124000e+01 -3.722758e-16
-1.123000e+01 -3.516680e-16
-1.122000e+01 -3.181196e-16
-1.121000e+01 -2.707823e-16
-1.120000e+01 -2.091392e-16
-1.119000e+01 -1.330643e-16
-1.118000e+01 -4.287662e-17
-1.117000e+01 6.061581e-17
-1.116000e+01 1.760843e-16
-1.115000e+01 3.016627e-16
-1.114000e+01 4.349469e-16
-1.113000e+01 5.730149e-16
-1.112000e+01 7.124657e-16
-1.111000e+01 8.494799e-16
-1.110000e+01 9.799014e-16
-1.109000e+01 1.099339e-15
-1.108000e+01 1.203287e-15
-1.107000e+01 1.287261e-15
-1.106000e+01 1.346945e-15
-1.105000e+01 1.378353e-15
-1.104000e+01 1.377984e-15
-1.103000e+01 1.342985e-15
-1.102000e+01 1.271302e-15
-1.101000e+01 1.161813e-15
-1.100000e+01 1.014448e-15
-1.099000e+01 8.302807e-16
-1.098000e+01 6.115864e-16
-1.097000e+01 3.618653e-16
-1.096000e+01 8.582683e-17
-1.095000e+01 -2.106706e-16
-1.094000e+01 -5.207225e-16
-1.093000e+01 -8.365256e-16
-1.092000e+01 -1.149567e-15
-1.091000e+01 -1.450851e-15
-1.090000e+01 -1.731160e-15
-1.089000e+01 -1.981343e-15
-1.088000e+01 -2.192619e-15
-1.087000e+01 -2.356888e-15
-1.086000e+01 -2.467049e-15
-1.085000e+01 -2.517291e-15
-1.084000e+01 -2.503370e-15
-1.083000e+01 -2.422845e-15
-1.082000e+01 -2.275268e-15
-1.081000e+01 -2.062314e-15
-1.080000e+01 -1.787849e-15
-1.079000e+01 -1.457926e-15
-1.078000e+01 -1.080699e-15
-1.077000e+01 -6.662640e-16
-1.076000e+01 -2.264229e-16
-1.075000e+01 2.256328e-16
-1.074000e+01 6.756986e-16
-1.073000e+01 1.108994e-15
-1.072000e+01 1.510642e-15
-1.071000e+01 1.866182e-15
-1.070000e+01 2.162094e-15
-1.069000e+01 2.386312e-15
-1.068000e+01 2.528724e-15
-1.067000e+01 2.581620e-15
-1.066000e+01 2.540078e-15
-1.065000e+01 2.402268e-15
-1.064000e+01 2.169666e-15
-1.063000e+01 1.847153e-15
-1.062000e+01 1.442995e-15
-1.061000e+01 9.686983e-16
-1.060000e+01 4.387459e-16
-1.059000e+01 -1.297994e-16
-1.058000e+01 -7.177988e-16
-1.057000e+01 -1.304645e-15
-1.056000e+01 -1.868953e-15
-1.055000e+01 -2.389313e-15
-1.054000e+01 -2.845081e-15
-1.053000e+01 -3.217172e-15
-1.052000e+01 -3.488846e-15
-1.051000e+01 -3.646423e-15
-1.050000e+01 -3.679932e-15
-1.049000e+01 -3.583639e-15
-1.048000e+01 -3.356442e-15
-1.047000e+01 -3.002103e-15
-1.046000e+01 -2.529309e-15
-1.045000e+01 -1.951537e-15
-1.044000e+01 -1.286730e-15
-1.043000e+01 -5.567838e-16
-1.042000e+01 2.131472e-16
-1.041000e+01 9.955103e-16
-1.040000e+01 1.761348e-15
-1.039000e+01 2.481400e-15
-1.038000e+01 3.127270e-15
-1.037000e+01 3.672623e-15
-1.036000e+01 4.094357e-15
-1.035000e+01 4.373711e-15
-1.034000e+01 4.497250e-15
-1.033000e+01 4.457699e-15
-1.032000e+01 4.254566e-15
-1.031000e+01 3.894521e-15
-1.030000e+01 3.391513e-15
-1.029000e+01 2.766592e-15
-1.028000e+01 2.047429e-15
-1.027000e+01 1.267541e-15
-1.026000e+01 4.652201e-16
-1.025000e+01 -3.177899e-16
-1.024000e+01 -1.037851e-15
-1.023000e+01 -1.651162e-15
-1.022000e+01 -2.115615e-15
-1.021000e+01 -2.392704e-15
-1.020000e+01 -2.449422e-15
-1.019000e+01 -2.260061e-15
-1.018000e+01 -1.807847e-15
-1.017000e+01 -1.086335e-15
-1.016000e+01 -1.004868e-16
-1.015000e+01 1.132626e-15
-1.014000e+01 2.583544e-15
-1.013000e+01 4.210611e-15
-1.012000e+01 5.960652e-15
-1.011000e+01 7.770146e-15
-1.010000e+01 9.566886e-15
-1.009000e+01 1.127209e-14
-1.008000e+01 1.280291e-14
-1.007000e+01 1.407529e-14
-1.006000e+01 1.500705e-14
-1.005000e+01 1.552111e-14
-1.004000e+01 1.554885e-14
-1.003000e+01 1.503320e-14
-1.002000e+01 1.393175e-14
-1.001000e+01 1.221933e-14
-1.000000e+01 9.890303e-15
-9.990000e+00 6.960183e-15
-9.980000e+00 3.466682e-15
-9.970000e+00 -5.300078e-16
-9.960000e+00 -4.947711e-15
-9.950000e+00 -9.683572e-15
-9.940001e+00 -1.461618e-14
-9.930000e+00 -1.960848e-14
-9.920000e+00 -2.451140e-14
-9.910000e+00 -2.916818e-14
-9.900000e+00 -3.341913e-14
-9.890000e+00 -3.710690e-14
-9.880000e+00 -4.008188e-14
-9.870000e+00 -4.220769e-14
-9.860001e+00 -4.336655e-14
-9.850000e+00 -4.346430e-14
-9.840000e+00 -4.243488e-14
-9.830000e+00 -4.024410e-14
-9.820000e+00 -3.689258e-14
-9.809999e+00 -3.241757e-14
-9.800000e+00 -2.689373e-14
-9.790000e+00 -2.043257e-14
-9.780000e+00 -1.318073e-14
-9.770000e+00 -5.316860e-15
-9.760000e+00 2.952631e-15
-9.750000e+00 1.139904e-14
-9.740000e+00 1.977784e-14
-9.730000e+00 2.783598e-14
-9.720000e+00 3.531981e-14
-9.710000e+00 4.198348e-14
-9.700000e+00 4.759733e-14
-9.690001e+00 5.195624e-14
-9.680000e+00 5.488746e-14
-9.670000e+00 5.625772e-14
-9.660000e+00 5.597933e-14
-9.650000e+00 5.401500e-14
-9.640000e+00 5.038116e-14
-9.630000e+00 4.514961e-14
-9.620000e+00 3.844739e-14
-9.610001e+00 3.045476e-14
-9.600000e+00 2.140130e-14
-9.590000e+00 1.156014e-14
-9.580000e+00 1.240565e-15
-9.570000e+00 -9.220992e-15
-9.559999e+00 -1.947121e-14
-9.550000e+00 -2.915113e-14
-9.540000e+00 -3.790807e-14
-9.530000e+00 -4.540774e-14
-9.520000e+00 -5.134636e-14
-9.510000e+00 -5.546206e-14
-9.500000e+00 -5.754541e-14
-9.490000e+00 -5.744860e-14
-9.480000e+00 -5.509284e-14
-9.470000e+00 -5.047373e-14
-9.460000e+00 -4.366436e-14
-9.450000e+00 -3.481584e-14
-9.440001e+00 -2.415528e-14
-9.430000e+00 -1.198109e-14
-9.420000e+00 1.344324e-15
-9.410000e+00 1.540427e-14
-9.400000e+00 2.973969e-14
-9.390000e+00 4.386297e-14
-9.380000e+00 5.727322e-14
-9.370000e+00 6.947257e-14
-9.360001e+00 7.998300e-14
-9.350000e+00 8.836307e-14
-9.340000e+00 9.422409e-14
-9.330000e+00 9.724512e-14
-9.320000e+00 9.718622e-14
-9.309999e+00 9.389943e-14
-9.300000e+00 8.733724e-14
-9.290000e+00 7.755777e-14
-9.280000e+00 6.472688e-14
-9.270000e+00 4.911658e-14
-9.260000e+00 3.109997e-14
-9.250000e+00 1.114259e-14
-9.240000e+00 -1.020947e-14
-9.230000e+00 -3.234464e-14
-9.220000e+00 -5.460355e-14
-9.210000e+00 -7.629877e-14
-9.200000e+00 -9.673630e-14
-9.190001e+00 -1.152377e-13
-9.180000e+00 -1.311628e-13
-9.170000e+00 -1.439313e-13
-9.160000e+00 -1.530436e-13
-9.150000e+00 -1.580992e-13
-9.140000e+00 -1.588128e-13
-9.130000e+00 -1.550268e-13
-9.120000e+00 -1.467202e-13
-9.110001e+00 -1.340129e-13
-9.100000e+00 -1.171663e-13
-9.090000e+00 -9.657830e-14
-9.080000e+00 -7.277475e-14
-9.070000e+00 -4.639574e-14
-9.060000e+00 -1.817823e-14
-9.050000e+00 1.106506e-14
-9.040000e+00 4.046972e-14
-9.030000e+00 6.914596e-14
-9.020000e+00 9.620638e-14
-9.010000e+00 1.207944e-13
-9.000000e+00 1.421122e-13
-8.990000e+00 1.594477e-13
-8.980000e+00 1.721987e-13
-8.970000e+00 1.798950e-13
-8.960000e+00 1.822157e-13
-8.950000e+00 1.790029e-13
-8.940001e+00 1.702697e-13
-8.930000e+00 1.562030e-13
-8.920000e+00 1.371613e-13
-8.910000e+00 1.136663e-13
-8.900000e+00 8.638894e-14
-8.890000e+00 5.613087e-14
-8.880000e+00 2.380118e-14
-8.870000e+00 -9.610969e-15
-8.860001e+00 -4.306651e-14
-8.850000e+00 -7.550894e-14
-8.840000e+00 -1.058977e-13
-8.830000e+00 -1.332418e-13
-8.820000e+00 -1.566322e-13
-8.810000e+00 -1.752717e-13
-8.800000e+00 -1.885024e-13
-8.790000e+00 -1.958285e-13
-8.780000e+00 -1.969339e-13
-8.770000e+00 -1.916951e-13
-8.760000e+00 -1.801870e-13
-8.750000e+00 -1.626828e-13
-8.740000e+00 -1.396477e-13
-8.730000e+00 -1.117258e-13
-8.720000e+00 -7.972139e-14
-8.710000e+00 -4.457455e-14
-8.700000e+00 -7.332386e-15
-8.690001e+00 3.088367e-14
-8.680000e+00 6.891327e-14
-8.670000e+00 1.055940e-13
-8.660000e+00 1.397988e-13
-8.650000e+00 1.704723e-13
-8.640000e+00 1.966649e-13
-8.630000e+00 2.175644e-13
-8.620000e+00 2.325221e-13
-8.610001e+00 2.410745e-13
-8.600000e+00 2.429591e-13
-8.590000e+00 2.381225e-13
-8.580000e+00 2.267233e-13
-8.570000e+00 2.091267e-13
-8.560000e+00 1.858926e-13
-8.550000e+00 1.577572e-13
-8.540000e+00 1.256089e-13
-8.530000e+00 9.045846e-14
-8.520000e+00 5.340587e-14
-8.510000e+00 1.560332e-14
-8.500000e+00 -2.178305e-14
-8.490000e+00 -5.761210e-14
-8.480000e+00 -9.080578e-14
-8.470000e+00 -1.203850e-13
-8.460000e+00 -1.455024e-13
-8.450000e+00 -1.654698e-13
-8.440001e+00 -1.797816e-13
-8.430000e+00 -1.881301e-13
-8.420000e+00 -1.904155e-13
-8.410000e+00 -1.867476e-13
-8.400000e+00 -1.774410e-13
-8.390000e+00 -1.630023e-13
-8.380000e+00 -1.441116e-13
-8.370000e+00 -1.215969e-13
-8.360001e+00 -9.640393e-14
-8.350000e+00 -6.956175e-14
-8.340000e+00 -4.214508e-14
-8.330000e+00 -1.523533e-14
-8.320000e+00 1.011875e-14
-8.310000e+00 3.293930e-14
-8.300000e+00 5.235505e-14
-8.290000e+00 6.763321e-14
-8.280000e+00 7.820652e-14
-8.270000e+00 8.369429e-14
-8.260000e+00 8.391680e-14
-8.250000e+00 7.890249e-14
-8.240000e+00 6.888764e-14
-8.230000e+00 5.430848e-14
-8.220000e+00 3.578607e-14
-8.210000e+00 1.410444e-14
-8.200000e+00 -9.817407e-15
-8.190001e+00 -3.495830e-14
-8.180000e+00 -6.023184e-14
-8.170000e+00 -8.452566e-14
-8.160000e+00 -1.067421e-13
-8.150000e+00 -1.258383e-13
-8.140000e+00 -1.408650e-13
-8.130000e+00 -1.510016e-13
-8.120000e+00 -1.555875e-13
-8.110001e+00 -1.541474e-13
-8.100000e+00 -1.464101e-13
-8.090000e+00 -1.323208e-13
-8.080000e+00 -1.120447e-13
-8.070000e+00 -8.596365e-14
-8.060000e+00 -5.466450e-14
-8.050000e+00 -1.892051e-14
-8.040000e+00 2.033428e-14
-8.030000e+00 6.203635e-14
-8.020000e+00 1.050288e-13
-8.010000e+00 1.481006e-13
-8.000000e+00 1.900289e-13
-7.990000e+00 2.296201e-13
-7.980000e+00 2.657521e-13
-7.970000e+00 2.974124e-13
-7.960000e+00 3.237334e-13
-7.950000e+00 3.440226e-13
-7.940000e+00 3.577859e-13
-7.930000e+00 3.647447e-13
-7.920000e+00 3.648454e-13
-7.910000e+00 3.582599e-13
-7.900000e+00 3.453799e-13
-7.890000e+00 3.268018e-13
-7.880000e+00 3.033053e-13
-7.870000e+00 2.758252e-13
-7.860000e+00 2.454183e-13
-7.850000e+00 2.132254e-13
-7.840000e+00 1.804312e-13
-7.830000e+00 1.482221e-13
-7.820000e+00 1.177452e-13
-7.810000e+00 9.006812e-14
-7.800000e+00 6.614254e-14
-7.790000e+00 4.677173e-14
-7.780000e+00 3.258429e-14
-7.770000e+00 2.401411e-14
-7.760000e+00 2.128784e-14
-7.750000e+00 2.442000e-14
-7.740000e+00 3.321609e-14
-7.730000e+00 4.728330e-14
-7.720000e+00 6.604865e-14
-7.710000e+00 8.878359e-14
-7.700000e+00 1.146343e-13
-7.690000e+00 1.426563e-13
-7.680000e+00 1.718522e-13
-7.670000e+00 2.012114e-13
-7.660000e+00 2.297489e-13
-7.650000e+00 2.565440e-13
-7.640000e+00 2.807753e-13
-7.630000e+00 3.017513e-13
-7.620000e+00 3.189362e-13
-7.610000e+00 3.319690e-13
-7.600000e+00 3.406749e-13
-7.590000e+00 3.450701e-13
-7.580000e+00 3.453581e-13
-7.570000e+00 3.419183e-13
-7.560000e+00 3.352882e-13
-7.550000e+00 3.261384e-13
-7.540000e+00 3.152422e-13
-7.530000e+00 3.034414e-13
-7.520000e+00 2.916091e-13
-7.510000e+00 2.806108e-13
-7.500000e+00 2.712658e-13
-7.490000e+00 2.643111e-13
-7.480000e+00 2.603677e-13
-7.470000e+00 2.599118e-13
-7.460000e+00 2.632525e-13
-7.450000e+00 2.705157e-13
-7.440000e+00 2.816360e-13
-7.430000e+00 2.963567e-13
-7.420000e+00 3.142379e-13
-7.410000e+00 3.346725e-13
-7.400000e+00 3.569102e-13
-7.390000e+00 3.800871e-13
-7.380000e+00 4.032618e-13
-7.370000e+00 4.254551e-13
-7.360000e+00 4.456928e-13
-7.350000e+00 4.630487e-13
-7.340000e+00 4.766872e-13
-7.330000e+00 4.859040e-13
-7.320000e+00 4.901618e-13
-7.310000e+00 4.891201e-13
-7.300000e+00 4.826591e-13
-7.290000e+00 4.708939e-13
-7.280000e+00 4.541817e-13
-7.270000e+00 4.331174e-13
-7.260000e+00 4.085214e-13
-7.250000e+00 3.814175e-13
-7.240000e+00 3.530021e-13
-7.230000e+00 3.246058e-13
-7.220000e+00 2.976490e-13
-7.210000e+00 2.735919e-13
-7.200000e+00 2.538821e-13
-7.190000e+00 2.399008e-13
-7.180000e+00 2.329098e-13
-7.170000e+00 2.340015e-13
-7.160000e+00 2.440533e-13
-7.150000e+00 2.636891e-13
-7.140000e+00 2.932489e-13
-7.130000e+00 3.327675e-13
-7.120000e+00 3.819639e-13
-7.110000e+00 4.402420e-13
-7.100000e+00 5.067024e-13
-7.090000e+00 5.801653e-13
-7.080000e+00 6.592039e-13
-7.070000e+00 7.421875e-13
-7.060000e+00 8.273320e-13
-7.050000e+00 9.127579e-13
-7.040000e+00 9.965520e-13
-7.030000e+00 1.076831e-12
-7.020000e+00 1.151807e-12
-7.010000e+00 1.219847e-12
-7.000000e+00 1.279532e-12
-6.990000e+00 1.329707e-12
-6.980000e+00 1.369523e-12
-6.970000e+00 1.398468e-12
-6.960000e+00 1.416388e-12
-6.950000e+00 1.423496e-12
-6.940000e+00 1.420362e-12
-6.930000e+00 1.407900e-12
-6.920000e+00 1.387337e-12
-6.910000e+00 1.360171e-12
-6.900000e+00 1.328118e-12
-6.890000e+00 1.293053e-12
-6.880000e+00 1.256948e-12
-6.870000e+00 1.221796e-12
-6.860000e+00 1.189547e-12
-6.850000e+00 1.162032e-12
-6.840000e+00 1.140902e-12
-6.830000e+00 1.127567e-12
-6.820000e+00 1.123145e-12
-6.810000e+00 1.128421e-12
-6.800000e+00 1.143820e-12
-6.790000e+00 1.169391e-12
-6.780000e+00 1.204807e-12
-6.770000e+00 1.249375e-12
-6.760000e+00 1.302067e-12
-6.750000e+00 1.361554e-12
-6.740000e+00 1.426264e-12
-6.730000e+00 1.494434e-12
-6.720000e+00 1.564188e-12
-6.710000e+00 1.633604e-12
-6.700000e+00 1.700791e-12
-6.690000e+00 1.763968e-12
-6.680000e+00 1.821534e-12
-6.670000e+00 1.872136e-12
-6.660000e+00 1.914724e-12
-6.650000e+00 1.948602e-12
-6.640000e+00 1.973463e-12
-6.630000e+00 1.989407e-12
-6.620000e+00 1.996947e-12
-6.610000e+00 1.997000e-12
-6.600000e+00 1.990861e-12
-6.590000e+00 1.980161e-12
-6.580000e+00 1.966817e-12
-6.570000e+00 1.952961e-12
-6.560000e+00 1.940870e-12
-6.550000e+00 1.932882e-12
-6.540000e+00 1.931312e-12
-6.530000e+00 1.938359e-12
-6.520000e+00 1.956032e-12
-6.510000e+00 1.986061e-12
-6.500000e+00 2.029833e-12
-6.490000e+00 2.088327e-12
-6.480000e+00 2.162072e-12
-6.470000e+00 2.251112e-12
-6.460000e+00 2.354997e-12
-6.450000e+00 2.472778e-12
-6.440000e+00 2.603036e-12
-6.430000e+00 2.743913e-12
-6.420000e+00 2.893169e-12
-6.410000e+00 3.048249e-12
-6.400000e+00 3.206366e-12
-6.390000e+00 3.364586e-12
-6.380000e+00 3.519929e-12
-6.370000e+00 3.669468e-12
-6.360000e+00 3.810427e-12
-6.350000e+00 3.940278e-12
-6.340000e+00 4.056830e-12
-6.330000e+00 4.158307e-12
-6.320000e+00 4.243416e-12
-6.310000e+00 4.311393e-12
-6.300000e+00 4.362039e-12
-6.290000e+00 4.395734e-12
-6.280000e+00 4.413428e-12
-6.270000e+00 4.416622e-12
-6.260000e+00 4.407321e-12
-6.250000e+00 4.387974e-12
-6.240000e+00 4.361398e-12
-6.230000e+00 4.330687e-12
-6.220000e+00 4.299120e-12
-6.210000e+00 4.270049e-12
-6.200000e+00 4.246789e-12
-6.190000e+00 4.232520e-12
-6.180000e+00 4.230172e-12
-6.170000e+00 4.242337e-12
-6.160000e+00 4.271185e-12
-6.150000e+00 4.318389e-12
-6.140000e+00 4.385073e-12
-6.130000e+00 4.471782e-12
-6.120000e+00 4.578460e-12
-6.110000e+00 4.704459e-12
-6.100000e+00 4.848559e-12
-6.090000e+00 5.009018e-12
-6.080000e+00 5.183630e-12
-6.070000e+00 5.369803e-12
-6.060000e+00 5.564648e-12
-6.050000e+00 5.765080e-12
-6.040000e+00 5.967923e-12
-6.030000e+00 6.170021e-12
-6.020000e+00 6.368340e-12
-6.010000e+00 6.560075e-12
-6.000000e+00 6.742743e-12
-5.990000e+00 6.914266e-12
-5.980000e+00 7.073034e-12
-5.970000e+00 7.217964e-12
-5.960000e+00 7.348524e-12
-5.950000e+00 7.464751e-12
-5.940000e+00 7.567246e-12
-5.930000e+00 7.657143e-12
-5.920000e+00 7.736062e-12
-5.910000e+00 7.806054e-12
-5.900000e+00 7.869520e-12
-5.890000e+00 7.929126e-12
-5.880000e+00 7.987704e-12
-5.870000e+00 8.048149e-12
-5.860000e+00 8.113317e-12
-5.850000e+00 8.185928e-12
-5.840000e+00 8.268468e-12
-5.830000e+00 8.363098e-12
-5.820000e+00 8.471588e-12
-5.810000e+00 8.595256e-12
-5.800000e+00 8.734923e-12
-5.790000e+00 8.890893e-12
-5.780000e+00 9.062943e-12
-5.770000e+00 9.250341e-12
-5.760000e+00 9.451879e-12
-5.750000e+00 9.665915e-12
-5.740000e+00 9.890448e-12
-5.730000e+00 1.012319e-11
-5.720000e+00 1.036165e-11
-5.710000e+00 1.060322e-11
-5.700000e+00 1.084532e-11
-5.690000e+00 1.108542e-11
-5.680000e+00 1.132119e-11
-5.670000e+00 1.155056e-11
-5.660000e+00 1.177180e-11
-5.650000e+00 1.198361e-11
-5.640000e+00 1.218513e-11
-5.630000e+00 1.237597e-11
-5.620000e+00 1.255627e-11
-5.610000e+00 1.272664e-11
-5.600000e+00 1.288819e-11
-5.590000e+00 1.304244e-11
-5.580000e+00 1.319130e-11
-5.570000e+00 1.333700e-11
-5.560000e+00 1.348201e-11
-5.550000e+00 1.362891e-11
-5.540000e+00 1.378040e-11
-5.530000e+00 1.393908e-11
-5.520000e+00 1.410748e-11
-5.510000e+00 1.428789e-11
-5.500000e+00 1.448232e-11
-5.490000e+00 1.469243e-11
-5.480000e+00 1.491948e-11
-5.470000e+00 1.516428e-11
-5.460000e+00 1.542718e-11
-5.450000e+00 1.570806e-11
-5.440000e+00 1.600633e-11
-5.430000e+00 1.632100e-11
-5.420000e+00 1.665068e-11
-5.410000e+00 1.699364e-11
-5.400000e+00 1.734789e-11
-5.390000e+00 1.771127e-11
-5.380000e+00 1.808151e-11
-5.370000e+00 1.845629e-11
-5.360000e+00 1.883339e-11
-5.350000e+00 1.921070e-11
-5.340000e+00 1.958634e-11
-5.330000e+00 1.995870e-11
-5.320000e+00 2.032650e-11
-5.310000e+00 2.068884e-11
-5.300000e+00 2.104520e-11
-5.290000e+00 2.139547e-11
-5.280000e+00 2.173995e-11
-5.270000e+00 2.207931e-11
-5.260000e+00 2.241458e-11
-5.250000e+00 2.274710e-11
-5.240000e+00 2.307843e-11
-5.230000e+00 2.341035e-11
-5.220000e+00 2.374473e-11
-5.210000e+00 2.408350e-11
-5.200000e+00 2.442855e-11
-5.190000e+00 2.478169e-11
-5.180000e+00 2.514455e-11
-5.170000e+00 2.551855e-11
-5.160000e+00 2.590485e-11
-5.150000e+00 2.630430e-11
-5.140000e+00 2.671744e-11
-5.130000e+00 2.714447e-11
-5.120000e+00 2.758527e-11
-5.110000e+00 2.803938e-11
-5.100000e+00 2.850609e-11
-5.090000e+00 2.898442e-11
-5.080000e+00 2.947321e-11
-5.070000e+00 2.997114e-11
-5.060000e+00 3.047681e-11
-5.050000e+00 3.098882e-11
-5.040000e+00 3.150578e-11
-5.030000e+00 3.202643e-11
-5.020000e+00 3.254963e-11
-5.010000e+00 3.307448e-11
-5.000000e+00 3.360028e-11
-4.990000e+00 3.412663e-11
-4.980000e+00 3.465338e-11
-4.970000e+00 3.518070e-11
-4.960000e+00 3.570904e-11
-4.950000e+00 3.623908e-11
-4.940000e+00 3.677178e-11
-4.930000e+00 3.730828e-11
-4.920000e+00 3.784987e-11
-4.910000e+00 3.839795e-11
-4.900000e+00 3.895399e-11
-4.890000e+00 3.951942e-11
-4.880000e+00 4.009565e-11
-4.870000e+00 4.068397e-11
-4.860000e+00 4.128551e-11
-4.850000e+00 4.190123e-11
-4.840000e+00 4.253187e-11
-4.830000e+00 4.317794e-11
-4.820000e+00 4.383969e-11
-4.810000e+00 4.451714e-11
-4.800000e+00 4.521010e-11
-4.790000e+00 4.591814e-11
-4.780000e+00 4.664070e-11
-4.770000e+00 4.737704e-11
-4.760000e+00 4.812636e-11
-4.750000e+00 4.888780e-11
-4.740000e+00 4.966053e-11
-4.730000e+00 5.044373e-11
-4.720000e+00 5.123673e-11
-4.710000e+00 5.203897e-11
-4.700000e+00 5.285008e-11
-4.690000e+00 5.366988e-11
-4.680000e+00 5.449841e-11
-4.670000e+00 5.533595e-11
-4.660000e+00 5.618298e-11
-4.650000e+00 5.704019e-11
-4.640000e+00 5.790845e-11
-4.630000e+00 5.878878e-11
-4.620000e+00 5.968230e-11
-4.610000e+00 6.059019e-11
-4.600000e+00 6.151364e-11
-4.590000e+00 6.245378e-11
-4.580000e+00 6.341163e-11
-4.570000e+00 6.438810e-11
-4.560000e+00 6.538384e-11
-4.550000e+00 6.639933e-11
-4.540000e+00 6.743474e-11
-4.530000e+00 6.848995e-11
-4.520000e+00 6.956459e-11
-4.510000e+00 7.065797e-11
-4.500000e+00 7.176913e-11
-4.490000e+00 7.289686e-11
-4.480000e+00 7.403977e-11
-4.470000e+00 7.519627e-11
-4.460000e+00 7.636471e-11
-4.450000e+00 7.754338e-11
-4.440000e+00 7.873060e-11
-4.430000e+00 7.992475e-11
-4.420000e+00 8.112444e-11
-4.410000e+00 8.232844e-11
-4.400000e+00 8.353584e-11
-4.390000e+00 8.474604e-11
-4.380000e+00 8.595880e-11
-4.370000e+00 8.717427e-11
-4.360000e+00 8.839299e-11
-4.350000e+00 8.961594e-11
-4.340000e+00 9.084445e-11
-4.330000e+00 9.208019e-11
-4.320000e+00 9.332517e-11
-4.310000e+00 9.458166e-11
-4.300000e+00 9.585209e-11
-4.290000e+00 9.713906e-11
-4.280000e+00 9.844518e-11
-4.270000e+00 9.977304e-11
-4.260000e+00 1.011251e-10
-4.250000e+00 1.025038e-10
-4.240000e+00 1.039111e-10
-4.230000e+00 1.053488e-10
-4.220000e+00 1.068182e-10
-4.210000e+00 1.083205e-10
-4.200000e+00 1.098562e-10
-4.190000e+00 1.114256e-10
-4.180000e+00 1.130283e-10
-4.170000e+00 1.146639e-10
-4.160000e+00 1.163313e-10
-4.150000e+00 1.180292e-10
-4.140000e+00 1.197562e-10
-4.130000e+00 1.215105e-10
-4.120000e+00 1.232903e-10
-4.110000e+00 1.250937e-10
-4.100000e+00 1.269190e-10
-4.090000e+00 1.287643e-10
-4.080000e+00 1.306282e-10
-4.070000e+00 1.325093e-10
-4.060000e+00 1.344066e-10
-4.050000e+00 1.363193e-10
-4.040000e+00 1.382472e-10
-4.030000e+00 1.401901e-10
-4.020000e+00 1.421484e-10
-4.010000e+00 1.441228e-10
-4.000000e+00 1.461141e-10
-3.990000e+00 1.481237e-10
-3.980000e+00 1.501528e-10
-3.970000e+00 1.522030e-10
-3.960000e+00 1.542760e-10
-3.950000e+00 1.563734e-10
-3.940001e+00 1.584968e-10
-3.930000e+00 1.606475e-10
-3.920000e+00 1.628268e-10
-3.910000e+00 1.650358e-10
-3.900001e+00 1.672752e-10
-3.890000e+00 1.695454e-10
-3.880000e+00 1.718466e-10
-3.870000e+00 1.741785e-10
-3.860001e+00 1.765406e-10
-3.850000e+00 1.789322e-10
-3.840000e+00 1.813523e-10
-3.830000e+00 1.837995e-10
-3.820001e+00 1.862727e-10
-3.810000e+00 1.887703e-10
-3.800000e+00 1.912912e-10
-3.790000e+00 1.938339e-10
-3.780000e+00 1.963974e-10
-3.770000e+00 1.989807e-10
-3.760000e+00 2.015834e-10
-3.750000e+00 2.042052e-10
-3.740000e+00 2.068462e-10
-3.730000e+00 2.095069e-10
-3.720000e+00 2.121884e-10
-3.710000e+00 2.148921e-10
-3.700000e+00 2.176197e-10
-3.690001e+00 2.203734e-10
-3.680000e+00 2.231556e-10
-3.670000e+00 2.259691e-10
-3.660000e+00 2.288166e-10
-3.650001e+00 2.317012e-10
-3.640000e+00 2.346258e-10
-3.630000e+00 2.375931e-10
-3.620000e+00 2.406061e-10
-3.610001e+00 2.436669e-10
-3.600000e+00 2.467778e-10
-3.590000e+00 2.499403e-10
-3.580000e+00 2.531557e-10
-3.570001e+00 2.564248e-10
-3.560000e+00 2.597476e-10
-3.550000e+00 2.631238e-10
-3.540000e+00 2.665527e-10
-3.530000e+00 2.700327e-10
-3.520000e+00 2.735623e-10
-3.510000e+00 2.771392e-10
-3.500000e+00 2.807609e-10
-3.490000e+00 2.844248e-10
-3.480000e+00 2.881280e-10
-3.470000e+00 2.918675e-10
-3.460000e+00 2.956407e-10
-3.450000e+00 2.994447e-10
-3.440001e+00 3.032772e-10
-3.430000e+00 3.071358e-10
-3.420000e+00 3.110190e-10
-3.410000e+00 3.149252e-10
-3.400001e+00 3.188536e-10
-3.390000e+00 3.228038e-10
-3.380000e+00 3.267759e-10
-3.370000e+00 3.307705e-10
-3.360001e+00 3.347887e-10
-3.350000e+00 3.388319e-10
-3.340000e+00 3.429020e-10
-3.330000e+00 3.470012e-10
-3.320001e+00 3.511318e-10
-3.310000e+00 3.552966e-10
-3.300000e+00 3.594982e-10
-3.290000e+00 3.637392e-10
-3.280000e+00 3.680224e-10
-3.270000e+00 3.723503e-10
-3.260000e+00 3.767251e-10
-3.250000e+00 3.811491e-10
-3.240000e+00 3.856239e-10
-3.230000e+00 3.901512e-10
-3.220000e+00 3.947323e-10
-3.210000e+00 3.993680e-10
-3.200000e+00 4.040590e-10
-3.190001e+00 4.088056e-10
-3.180000e+00 4.136080e-10
-3.170000e+00 4.184663e-10
-3.160000e+00 4.233804e-10
-3.150001e+00 4.283498e-10
-3.140000e+00 4.333745e-10
-3.130000e+00 4.384543e-10
-3.120000e+00 4.435889e-10
-3.110001e+00 4.487784e-10
-3.100000e+00 4.540229e-10
-3.090000e+00 4.593226e-10
-3.080000e+00 4.646780e-10
-3.070001e+00 4.700899e-10
-3.060000e+00 4.755589e-10
-3.050000e+00 4.810859e-10
-3.040000e+00 4.866721e-10
-3.030000e+00 4.923186e-10
-3.020000e+00 4.980263e-10
-3.010000e+00 5.037964e-10
-3.000000e+00 5.096298e-10
-2.990000e+00 5.155275e-10
-2.980000e+00 5.214899e-10
-2.970000e+00 5.275173e-10
-2.960000e+00 5.336102e-10
-2.950000e+00 5.397680e-10
-2.940001e+00 5.459904e-10
-2.930000e+00 5.522763e-10
-2.920000e+00 5.586249e-10
-2.910000e+00 5.650346e-10
-2.900001e+00 5.715038e-10
-2.890000e+00 5.780306e-10
-2.880000e+00 5.846129e-10
-2.870000e+00 5.912489e-10
-2.860001e+00 5.979364e-10
-2.850000e+00 6.046735e-10
-2.840000e+00 6.114587e-10
-2.830000e+00 6.182900e-10
-2.820001e+00 6.251667e-10
-2.810000e+00 6.320877e-10
-2.800000e+00 6.390527e-10
-2.790000e+00 6.460618e-10
-2.780000e+00 6.531154e-10
-2.770000e+00 6.602147e-10
-2.760000e+00 6.673609e-10
-2.750000e+00 6.745563e-10
-2.740000e+00 6.818029e-10
-2.730000e+00 6.891036e-10
-2.720000e+00 6.964609e-10
-2.710000e+00 7.038781e-10
-2.700000e+00 7.113585e-10
-2.690001e+00 7.189050e-10
-2.680000e+00 7.265208e-10
-2.670000e+00 7.342089e-10
-2.660000e+00 7.419717e-10
-2.650001e+00 7.498117e-10
-2.640000e+00 7.577306e-10
-2.630000e+00 7.657301e-10
-2.620000e+00 7.738112e-10
-2.610001e+00 7.819744e-10
-2.600000e+00 7.902198e-10
-2.590000e+00 7.985471e-10
-2.580000e+00 8.069555e-10
-2.570001e+00 8.154440e-10
-2.560000e+00 8.240113e-10
-2.550000e+00 8.326557e-10
-2.540000e+00 8.413757e-10
-2.530001e+00 8.501695e-10
-2.520000e+00 8.590357e-10
-2.510000e+00 8.679727e-10
-2.500000e+00 8.769794e-10
-2.490000e+00 8.860549e-10
-2.480000e+00 8.951987e-10
-2.470000e+00 9.044106e-10
-2.460000e+00 9.136910e-10
-2.450000e+00 9.230406e-10
-2.440001e+00 9.324606e-10
-2.430000e+00 9.419523e-10
-2.420000e+00 9.515176e-10
-2.410000e+00 9.611588e-10
-2.400001e+00 9.708779e-10
-2.390000e+00 9.806773e-10
-2.380000e+00 9.905594e-10
-2.370000e+00 1.000526e-09
-2.360001e+00 1.010581e-09
-2.350000e+00 1.020723e-09
-2.340000e+00 1.030956e-09
-2.330000e+00 1.041279e-09
-2.320001e+00 1.051694e-09
-2.310000e+00 1.062200e-09
-2.300000e+00 1.072797e-09
-2.290000e+00 1.083484e-09
-2.280001e+00 1.094258e-09
-2.270000e+00 1.105118e-09
-2.260000e+00 1.116061e-09
-2.250000e+00 1.127085e-09
-2.240000e+00 1.138186e-09
-2.230000e+00 1.149362e-09
-2.220000e+00 1.160610e-09
-2.210000e+00 1.171927e-09
-2.200000e+00 1.183310e-09
-2.190001e+00 1.194758e-09
-2.180000e+00 1.206270e-09
-2.170000e+00 1.217843e-09
-2.160000e+00 1.229479e-09
-2.150001e+00 1.241176e-09
-2.140000e+00 1.252938e-09
-2.130000e+00 1.264764e-09
-2.120000e+00 1.276659e-09
-2.110001e+00 1.288625e-09
-2.100000e+00 1.300666e-09
-2.090000e+00 1.312786e-09
-2.080000e+00 1.324989e-09
-2.070001e+00 1.337281e-09
-2.060000e+00 1.349665e-09
-2.050000e+00 1.362147e-09
-2.040000e+00 1.374730e-09
-2.030001e+00 1.387420e-09
-2.020000e+00 1.400217e-09
-2.010000e+00 1.413127e-09
-2.000000e+00 1.426151e-09
-1.990000e+00 1.439289e-09
-1.980000e+00 1.452542e-09
-1.970000e+00 1.465910e-09
-1.960000e+00 1.479391e-09
-1.950000e+00 1.492984e-09
-1.940001e+00 1.506685e-09
-1.930000e+00 1.520491e-09
-1.920000e+00 1.534398e-09
-1.910000e+00 1.548403e-09
-1.900001e+00 1.562500e-09
-1.890000e+00 1.576685e-09
-1.880000e+00 1.590954e-09
-1.870000e+00 1.605303e-09
-1.860001e+00 1.619728e-09
-1.850000e+00 1.634227e-09
-1.840000e+00 1.648798e-09
-1.830000e+00 1.663439e-09
-1.820001e+00 1.678148e-09
-1.810000e+00 1.692928e-09
-1.800000e+00 1.707778e-09
-1.790000e+00 1.722701e-09
-1.780001e+00 1.737700e-09
-1.770000e+00 1.752777e-09
-1.760000e+00 1.767936e-09
-1.750000e+00 1.783183e-09
-1.740000e+00 1.798521e-09
-1.730000e+00 1.813955e-09
-1.720000e+00 1.829490e-09
-1.710000e+00 1.845130e-09
-1.700000e+00 1.860878e-09
-1.690001e+00 1.876739e-09
-1.680000e+00 1.892714e-09
-1.670000e+00 1.908806e-09
-1.660000e+00 1.925016e-09
-1.650001e+00 1.941343e-09
-1.640000e+00 1.957788e-09
-1.630000e+00 1.974348e-09
-1.620000e+00 1.991021e-09
-1.610001e+00 2.007805e-09
-1.600000e+00 2.024695e-09
-1.590000e+00 2.041687e-09
-1.580000e+00 2.058777e-09
-1.570001e+00 2.075961e-09
-1.560000e+00 2.093233e-09
-1.550000e+00 2.110591e-09
-1.540000e+00 2.128029e-09
-1.530001e+00 2.145545e-09
-1.520000e+00 2.163136e-09
-1.510000e+00 2.180800e-09
-1.500000e+00 2.198538e-09
-1.490000e+00 2.216348e-09
-1.480000e+00 2.234231e-09
-1.470000e+00 2.252191e-09
-1.460000e+00 2.270230e-09
-1.450000e+00 2.288351e-09
-1.440001e+00 2.306560e-09
-1.430000e+00 2.324860e-09
-1.420000e+00 2.343258e-09
-1.410000e+00 2.361759e-09
-1.400001e+00 2.380369e-09
-1.390000e+00 2.399092e-09
-1.380000e+00 2.417935e-09
-1.370000e+00 2.436902e-09
-1.360001e+00 2.455997e-09
-1.350000e+00 2.475221e-09
-1.340000e+00 2.494579e-09
-1.330000e+00 2.514071e-09
-1.320001e+00 2.533696e-09
-1.310000e+00 2.553454e-09
-1.300000e+00 2.573343e-09
-1.290000e+00 2.593360e-09
-1.280001e+00 2.613500e-09
-1.270000e+00 2.633760e-09
-1.260000e+00 2.654134e-09
-1.250000e+00 2.674618e-09
-1.240000e+00 2.695204e-09
-1.230000e+00 2.715887e-09
-1.220000e+00 2.736662e-09
-1.210000e+00 2.757524e-09
-1.200000e+00 2.778468e-09
-1.190001e+00 2.799489e-09
-1.180000e+00 2.820586e-09
-1.170000e+00 2.841754e-09
-1.160000e+00 2.862995e-09
-1.150001e+00 2.884305e-09
-1.140000e+00 2.905688e-09
-1.130000e+00 2.927144e-09
-1.120000e+00 2.948676e-09
-1.110001e+00 2.970287e-09
-1.100000e+00 2.991981e-09
-1.090000e+00 3.013763e-09
-1.080000e+00 3.035636e-09
-1.070001e+00 3.057606e-09
-1.060000e+00 3.079678e-09
-1.050000e+00 3.101856e-09
-1.040000e+00 3.124144e-09
-1.030001e+00 3.146545e-09
-1.020000e+00 3.169063e-09
-1.010000e+00 3.191700e-09
-1.000000e+00 3.214457e-09
-9.899998e-01 3.237334e-09
-9.800005e-01 3.260331e-09