-1.200000e+01 0.000000e+00
-1.199000e+01 0.000000e+00
-1.198000e+01 0.000000e+00
-1.197000e+01 0.000000e+00
-1.196000e+01 4.551878e-26
-1.195000e+01 -1.012771e-22
-1.194000e+01 -1.105939e-21
-1.193000e+01 -6.564772e-21
-1.192000e+01 -2.807788e-20
-1.191000e+01 -9.678918e-20
-1.190000e+01 -2.853874e-19
-1.189000e+01 -7.464200e-19
-1.188000e+01 -1.774183e-18
-1.187000e+01 -3.898675e-18
-1.186000e+01 -8.020821e-18
-1.185000e+01 -1.559821e-17
-1.184000e+01 -2.888945e-17
-1.183000e+01 -5.126308e-17
-1.182000e+01 -8.757294e-17
-1.181000e+01 -1.445965e-16
-1.180000e+01 -2.315247e-16
-1.179000e+01 -3.604846e-16
-1.178000e+01 -5.470605e-16
-1.177000e+01 -8.107737e-16
-1.176000e+01 -1.175460e-15
-1.175000e+01 -1.669474e-15
-1.174000e+01 -2.325637e-15
-1.173000e+01 -3.180822e-15
-1.172000e+01 -4.275071e-15
-1.171000e+01 -5.650119e-15
-1.170000e+01 -7.347204e-15
-1.169000e+01 -9.404023e-15
-1.168000e+01 -1.185074e-14
-1.167000e+01 -1.470489e-14
-1.166000e+01 -1.796518e-14
-1.165000e+01 -2.160399e-14
-1.164000e+01 -2.555871e-14
-1.163000e+01 -2.972185e-14
-1.162000e+01 -3.393001e-14
-1.161000e+01 -3.795190e-14
-1.160000e+01 -4.147570e-14
-1.159000e+01 -4.409588e-14
-1.158000e+01 -4.530015e-14
-1.157000e+01 -4.445677e-14
-1.156000e+01 -4.080304e-14
-1.155000e+01 -3.343551e-14
-1.154000e+01 -2.130259e-14
-1.153000e+01 -3.200646e-15
-1.152000e+01 2.222580e-14
-1.151000e+01 5.647874e-14
-1.150000e+01 1.011953e-13
-1.149000e+01 1.581292e-13
-1.148000e+01 2.291249e-13
-1.147000e+01 3.160822e-13
-1.146000e+01 4.209125e-13
-1.145000e+01 5.454848e-13
-1.144000e+01 6.915608e-13
-1.143000e+01 8.607214e-13
-1.142000e+01 1.054282e-12
-1.141000e+01 1.273196e-12
-1.140000e+01 1.517958e-12
-1.139000e+01 1.788486e-12
-1.138000e+01 2.084010e-12
-1.137000e+01 2.402952e-12
-1.136000e+01 2.742802e-12
-1.135000e+01 3.100001e-12
-1.134000e+01 3.469824e-12
-1.133000e+01 3.846274e-12
-1.132000e+01 4.221987e-12
-1.131000e+01 4.588158e-12
-1.130000e+01 4.934478e-12
-1.129000e+01 5.249109e-12
-1.128000e+01 5.518678e-12
-1.127000e+01 5.728312e-12
-1.126000e+01 5.861710e-12
-1.125000e+01 5.901255e-12
-1.124000e+01 5.828178e-12
-1.123000e+01 5.622761e-12
-1.122000e+01 5.264596e-12
-1.121000e+01 4.732900e-12
-1.120000e+01 4.006868e-12
-1.119000e+01 3.066091e-12
-1.118000e+01 1.891010e-12
-1.117000e+01 4.634233e-13
-1.116000e+01 -1.232978e-12
-1.115000e+01 -3.212032e-12
-1.114000e+01 -5.484511e-12
-1.113000e+01 -8.057511e-12
-1.112000e+01 -1.093383e-11
-1.111000e+01 -1.411139e-11
-1.110000e+01 -1.758260e-11
-1.109000e+01 -2.133386e-11
-1.108000e+01 -2.534506e-11
-1.107000e+01 -2.958914e-11
-1.106000e+01 -3.403173e-11
-1.105000e+01 -3.863097e-11
-1.104000e+01 -4.333730e-11
-1.103000e+01 -4.809355e-11
-1.102000e+01 -5.283500e-11
-1.101000e+01 -5.748977e-11
-1.100000e+01 -6.197922e-11
-1.099000e+01 -6.621860e-11
-1.098000e+01 -7.011790e-11
-1.097000e+01 -7.358283e-11
-1.096000e+01 -7.651600e-11
-1.095000e+01 -7.881824e-11
-1.094000e+01 -8.039016e-11
-1.093000e+01 -8.113377e-11
-1.092000e+01 -8.095431e-11
-1.091000e+01 -7.976212e-11
-1.090000e+01 -7.747464e-11
-1.089000e+01 -7.401849e-11
-1.088000e+01 -6.933148e-11
-1.087000e+01 -6.336472e-11
-1.086000e+01 -5.608458e-11
-1.085000e+01 -4.747463e-11
-1.084000e+01 -3.753738e-11
-1.083000e+01 -2.629586e-11
-1.082000e+01 -1.379504e-11
-1.081000e+01 -1.028399e-13
-1.080000e+01 1.468903e-11
-1.079000e+01 3.046468e-11
-1.078000e+01 4.708395e-11
-1.077000e+01 6.438286e-11
-1.076000e+01 8.217433e-11
-1.075000e+01 1.002495e-10
-1.074000e+01 1.183796e-10
-1.073000e+01 1.363179e-10
-1.072000e+01 1.538027e-10
-1.071000e+01 1.705602e-10
-1.070000e+01 1.863084e-10
-1.069000e+01 2.007607e-10
-1.068000e+01 2.136309e-10
-1.067000e+01 2.246369e-10
-1.066000e+01 2.335065e-10
-1.065000e+01 2.399819e-10
-1.064000e+01 2.438251e-10
-1.063000e+01 2.448230e-10
-1.062000e+01 2.427925e-10
-1.061000e+01 2.375852e-10
-1.060000e+01 2.290925e-10
-1.059000e+01 2.172491e-10
-1.058000e+01 2.020374e-10
-1.057000e+01 1.834905e-10
-1.056000e+01 1.616945e-10
-1.055000e+01 1.367903e-10
-1.054000e+01 1.089746e-10
-1.053000e+01 7.849982e-11
-1.052000e+01 4.567330e-11
-1.051000e+01 1.085506e-11
-1.050000e+01 -2.554504e-11
-1.049000e+01 -6.307128e-11
-1.048000e+01 -1.012272e-10
-1.047000e+01 -1.394816e-10
-1.046000e+01 -1.772756e-10
-1.045000e+01 -2.140302e-10
-1.044000e+01 -2.491551e-10
-1.043000e+01 -2.820581e-10
-1.042000e+01 -3.121546e-10
-1.041000e+01 -3.388782e-10
-1.040000e+01 -3.616906e-10
-1.039000e+01 -3.800927e-10
-1.038000e+01 -3.936342e-10
-1.037000e+01 -4.019247e-10
-1.036000e+01 -4.046420e-10
-1.035000e+01 -4.015421e-10
-1.034000e+01 -3.924661e-10
-1.033000e+01 -3.773473e-10
-1.032000e+01 -3.562172e-10
-1.031000e+01 -3.292087e-10
-1.030000e+01 -2.965592e-10
-1.029000e+01 -2.586110e-10
-1.028000e+01 -2.158102e-10
-1.027000e+01 -1.687041e-10
-1.026000e+01 -1.179357e-10
-1.025000e+01 -6.423723e-11
-1.024000e+01 -8.421276e-12
-1.023000e+01 4.862992e-11
-1.022000e+01 1.059768e-10
-1.021000e+01 1.626364e-10
-1.020000e+01 2.175979e-10
-1.019000e+01 2.698393e-10
-1.018000e+01 3.183447e-10
-1.017000e+01 3.621233e-10
-1.016000e+01 4.002273e-10
-1.015000e+01 4.317713e-10
-1.014000e+01 4.559506e-10
-1.013000e+01 4.720593e-10
-1.012000e+01 4.795072e-10
-1.011000e+01 4.778354e-10
-1.010000e+01 4.667302e-10
-1.009000e+01 4.460355e-10
-1.008000e+01 4.157621e-10
-1.007000e+01 3.760947e-10
-1.006000e+01 3.273964e-10
-1.005000e+01 2.702098e-10
-1.004000e+01 2.052548e-10
-1.003000e+01 1.334233e-10
-1.002000e+01 5.577050e-11
-1.001000e+01 -2.649751e-11
-1.000000e+01 -1.120389e-10
-9.990000e+00 -1.993948e-10
-9.980000e+00 -2.870111e-10
-9.970000e+00 -3.732626e-10
-9.960000e+00 -4.564799e-10
-9.950000e+00 -5.349780e-10
-9.940001e+00 -6.070863e-10
-9.930000e+00 -6.711807e-10
-9.920000e+00 -7.257152e-10
-9.910000e+00 -7.692533e-10
-9.900000e+00 -8.005004e-10
-9.890000e+00 -8.183331e-10
-9.880000e+00 -8.218281e-10
-9.870000e+00 -8.102878e-10
-9.860001e+00 -7.832635e-10
-9.850000e+00 -7.405748e-10
-9.840000e+00 -6.823251e-10
-9.830000e+00 -6.089124e-10
-9.820000e+00 -5.210355e-10
-9.809999e+00 -4.196945e-10
-9.800000e+00 -3.061864e-10
-9.790000e+00 -1.820945e-10
-9.780000e+00 -4.927277e-11
-9.770000e+00 9.017609e-11
-9.760000e+00 2.339277e-10
-9.750000e+00 3.794682e-10
-9.740000e+00 5.241316e-10
-9.730000e+00 6.651417e-10
-9.720000e+00 7.996570e-10
-9.710000e+00 9.248197e-10
-9.700000e+00 1.037807e-09
-9.690001e+00 1.135884e-09
-9.680000e+00 1.216455e-09
-9.670000e+00 1.277122e-09
-9.660000e+00 1.315731e-09
-9.650000e+00 1.330423e-09
-9.640000e+00 1.319686e-09
-9.630000e+00 1.282393e-09
-9.620000e+00 1.217838e-09
-9.610001e+00 1.125774e-09
-9.600000e+00 1.006433e-09
-9.590000e+00 8.605450e-10
-9.580000e+00 6.893492e-10
-9.570000e+00 4.945923e-10
-9.559999e+00 2.785222e-10
-9.550000e+00 4.387034e-11
-9.540000e+00 -2.061745e-10
-9.530000e+00 -4.680015e-10
-9.520000e+00 -7.376227e-10
-9.510000e+00 -1.010725e-09
-9.500000e+00 -1.282731e-09
-9.490000e+00 -1.548867e-09
-9.480000e+00 -1.804236e-09
-9.470000e+00 -2.043896e-09
-9.460000e+00 -2.262947e-09
-9.450000e+00 -2.456610e-09
-9.440001e+00 -2.620316e-09
-9.430000e+00 -2.749796e-09
-9.420000e+00 -2.841158e-09
-9.410000e+00 -2.890978e-09
-9.400000e+00 -2.896366e-09
-9.390000e+00 -2.855043e-09
-9.380000e+00 -2.765402e-09
-9.370000e+00 -2.626558e-09
-9.360001e+00 -2.438395e-09
-9.350000e+00 -2.201594e-09
-9.340000e+00 -1.917655e-09
-9.330000e+00 -1.588899e-09
-9.320000e+00 -1.218461e-09
-9.309999e+00 -8.102712e-10
-9.300000e+00 -3.690144e-10
-9.290000e+00 9.991784e-11
-9.280000e+00 5.904917e-10
-9.270000e+00 1.096108e-09
-9.260000e+00 1.609689e-09
-9.250000e+00 2.123781e-09
-9.240000e+00 2.630663e-09
-9.230000e+00 3.122459e-09
-9.220000e+00 3.591270e-09
-9.210000e+00 4.029293e-09
-9.200000e+00 4.428955e-09
-9.190001e+00 4.783044e-09
-9.180000e+00 5.084832e-09
-9.170000e+00 5.328204e-09
-9.160000e+00 5.507770e-09
-9.150000e+00 5.618976e-09
-9.140000e+00 5.658198e-09
-9.130000e+00 5.622830e-09
-9.120000e+00 5.511349e-09
-9.110001e+00 5.323371e-09
-9.100000e+00 5.059685e-09
-9.090000e+00 4.722273e-09
-9.080000e+00 4.314302e-09
-9.070000e+00 3.840107e-09
-9.060000e+00 3.305142e-09
-9.050000e+00 2.715926e-09
-9.040000e+00 2.079952e-09
-9.030000e+00 1.405592e-09
-9.020000e+00 7.019785e-10
-9.010000e+00 -2.112944e-11
-9.000000e+00 -7.534918e-10
-8.990000e+00 -1.484546e-09
-8.980000e+00 -2.203577e-09
-8.970000e+00 -2.899885e-09
-8.960000e+00 -3.562968e-09
-8.950000e+00 -4.182699e-09
-8.940001e+00 -4.749497e-09
-8.930000e+00 -5.254503e-09
-8.920000e+00 -5.689737e-09
-8.910000e+00 -6.048247e-09
-8.900000e+00 -6.324247e-09
-8.890000e+00 -6.513236e-09
-8.880000e+00 -6.612089e-09
-8.870000e+00 -6.619144e-09
-8.860001e+00 -6.534247e-09
-8.850000e+00 -6.358783e-09
-8.840000e+00 -6.095680e-09
-8.830000e+00 -5.749385e-09
-8.820000e+00 -5.325806e-09
-8.810000e+00 -4.832245e-09
-8.800000e+00 -4.277287e-09
-8.790000e+00 -3.670674e-09
-8.780000e+00 -3.023157e-09
-8.770000e+00 -2.346322e-09
-8.760000e+00 -1.652405e-09
-8.750000e+00 -9.540840e-10
-8.740000e+00 -2.642640e-10
-8.730000e+00 4.041455e-10
-8.720000e+00 1.038460e-09
-8.710000e+00 1.626451e-09
-8.700000e+00 2.156568e-09
-8.690001e+00 2.618160e-09
-8.680000e+00 3.001684e-09
-8.670000e+00 3.298893e-09
-8.660000e+00 3.503010e-09
-8.650000e+00 3.608880e-09
-8.640000e+00 3.613091e-09
-8.630000e+00 3.514076e-09
-8.620000e+00 3.312173e-09
-8.610001e+00 3.009663e-09
-8.600000e+00 2.610765e-09
-8.590000e+00 2.121608e-09
-8.580000e+00 1.550156e-09
-8.570000e+00 9.061090e-10
-8.560000e+00 2.007632e-10
-8.550000e+00 -5.531513e-10
-8.540000e+00 -1.341669e-09
-8.530000e+00 -2.149811e-09
-8.520000e+00 -2.961828e-09
-8.510000e+00 -3.761463e-09
-8.500000e+00 -4.532231e-09
-8.490000e+00 -5.257709e-09
-8.480000e+00 -5.921822e-09
-8.470000e+00 -6.509141e-09
-8.460000e+00 -7.005173e-09
-8.450000e+00 -7.396634e-09
-8.440001e+00 -7.671715e-09
-8.430000e+00 -7.820326e-09
-8.420000e+00 -7.834307e-09
-8.410000e+00 -7.707630e-09
-8.400000e+00 -7.436542e-09
-8.390000e+00 -7.019690e-09
-8.380000e+00 -6.458208e-09
-8.370000e+00 -5.755744e-09
-8.360001e+00 -4.918471e-09
-8.350000e+00 -3.955029e-09
-8.340000e+00 -2.876442e-09
-8.330000e+00 -1.695983e-09
-8.320000e+00 -4.290011e-10
-8.310000e+00 9.072921e-10
-8.300000e+00 2.294071e-09
-8.290000e+00 3.711176e-09
-8.280000e+00 5.137426e-09
-8.270000e+00 6.550946e-09
-8.260000e+00 7.929525e-09
-8.250000e+00 9.250970e-09
-8.240000e+00 1.049348e-08
-8.230000e+00 1.163602e-08
-8.220000e+00 1.265866e-08
-8.210000e+00 1.354298e-08
-8.200000e+00 1.427234e-08
-8.190001e+00 1.483220e-08
-8.180000e+00 1.521042e-08
-8.170000e+00 1.539752e-08
-8.160000e+00 1.538679e-08
-8.150000e+00 1.517454e-08
-8.140000e+00 1.476018e-08
-8.130000e+00 1.414623e-08
-8.120000e+00 1.333842e-08
-8.110001e+00 1.234554e-08
-8.100000e+00 1.117942e-08
-8.090000e+00 9.854737e-09
-8.080000e+00 8.388835e-09
-8.070000e+00 6.801462e-09
-8.060000e+00 5.114486e-09
-8.050000e+00 3.351565e-09
-8.040000e+00 1.537782e-09
-8.030000e+00 -3.007498e-10
-8.020000e+00 -2.137296e-09
-8.010000e+00 -3.944935e-09
-8.000000e+00 -5.696992e-09
-7.990000e+00 -7.367475e-09
-7.980000e+00 -8.931507e-09
-7.970000e+00 -1.036574e-08
-7.960000e+00 -1.164876e-08
-7.950000e+00 -1.276141e-08
-7.940000e+00 -1.368720e-08
-7.930000e+00 -1.441250e-08
-7.920000e+00 -1.492687e-08
-7.910000e+00 -1.522318e-08
-7.900000e+00 -1.529779e-08
-7.890000e+00 -1.515062e-08
-7.880000e+00 -1.478516e-08
-7.870000e+00 -1.420844e-08
-7.860000e+00 -1.343092e-08
-7.850000e+00 -1.246633e-08
-7.840000e+00 -1.133147e-08
-7.830000e+00 -1.004591e-08
-7.820000e+00 -8.631718e-09
-7.810000e+00 -7.113041e-09
-7.800000e+00 -5.515751e-09
-7.790000e+00 -3.866989e-09
-7.780000e+00 -2.194723e-09
-7.770000e+00 -5.272681e-10
-7.760000e+00 1.107189e-09
-7.750000e+00 2.681070e-09
-7.740000e+00 4.167874e-09
-7.730000e+00 5.542635e-09
-7.720000e+00 6.782345e-09
-7.710000e+00 7.866360e-09
-7.700000e+00 8.776744e-09
-7.690000e+00 9.498596e-09
-7.680000e+00 1.002030e-08
-7.670000e+00 1.033372e-08
-7.660000e+00 1.043436e-08
-7.650000e+00 1.032145e-08
-7.640000e+00 9.997916e-09
-7.630000e+00 9.470396e-09
-7.620000e+00 8.749071e-09
-7.610000e+00 7.847508e-09
-7.600000e+00 6.782431e-09
-7.590000e+00 5.573406e-09
-7.580000e+00 4.242514e-09
-7.570000e+00 2.813953e-09
-7.560000e+00 1.313609e-09
-7.550000e+00 -2.314034e-10
-7.540000e+00 -1.793221e-09
-7.530000e+00 -3.343731e-09
-7.520000e+00 -4.855073e-09
-7.510000e+00 -6.300140e-09
-7.500000e+00 -7.653061e-09
-7.490000e+00 -8.889672e-09
-7.480000e+00 -9.987945e-09
-7.470000e+00 -1.092840e-08
-7.460000e+00 -1.169443e-08
-7.450000e+00 -1.227265e-08
-7.440000e+00 -1.265309e-08
-7.430000e+00 -1.282943e-08
-7.420000e+00 -1.279908e-08
-7.410000e+00 -1.256325e-08
-7.400000e+00 -1.212692e-08
-7.390000e+00 -1.149878e-08
-7.380000e+00 -1.069105e-08
-7.370000e+00 -9.719287e-09
-7.360000e+00 -8.602077e-09
-7.350000e+00 -7.360733e-09
-7.340000e+00 -6.018888e-09
-7.330000e+00 -4.602078e-09
-7.320000e+00 -3.137272e-09
-7.310000e+00 -1.652386e-09
-7.300000e+00 -1.757695e-10
-7.290000e+00 1.264312e-09
-7.280000e+00 2.640197e-09
-7.270000e+00 3.925342e-09
-7.260000e+00 5.094805e-09
-7.250000e+00 6.125719e-09
-7.240000e+00 6.997712e-09
-7.230000e+00 7.693292e-09
-7.220000e+00 8.198186e-09
-7.210000e+00 8.501607e-09
-7.200000e+00 8.596468e-09
-7.190000e+00 8.479534e-09
-7.180000e+00 8.151491e-09
-7.170000e+00 7.616954e-09
-7.160000e+00 6.884401e-09
-7.150000e+00 5.966041e-09
-7.140000e+00 4.877600e-09
-7.130000e+00 3.638064e-09
-7.120000e+00 2.269340e-09
-7.110000e+00 7.958802e-10
-7.100000e+00 -7.557488e-10
-7.090000e+00 -2.357336e-09
-7.080000e+00 -3.979523e-09
-7.070000e+00 -5.592329e-09
-7.060000e+00 -7.165680e-09
-7.050000e+00 -8.669946e-09
-7.040000e+00 -1.007647e-08
-7.030000e+00 -1.135809e-08
-7.020000e+00 -1.248960e-08
-7.010000e+00 -1.344821e-08
-7.000000e+00 -1.421400e-08
-6.990000e+00 -1.477018e-08
-6.980000e+00 -1.510348e-08
-6.970000e+00 -1.520434e-08
-6.960000e+00 -1.506709e-08
-6.950000e+00 -1.469006e-08
-6.940000e+00 -1.407556e-08
-6.930000e+00 -1.322991e-08
-6.920000e+00 -1.216325e-08
-6.910000e+00 -1.088940e-08
-6.900000e+00 -9.425585e-09
-6.890000e+00 -7.792139e-09
-6.880000e+00 -6.012116e-09
-6.870000e+00 -4.110881e-09
-6.860000e+00 -2.115658e-09
-6.850000e+00 -5.503394e-11
-6.840000e+00 2.041550e-09
-6.830000e+00 4.144324e-09
-6.820000e+00 6.223721e-09
-6.810000e+00 8.250892e-09
-6.800000e+00 1.019822e-08
-6.790000e+00 1.203978e-08
-6.780000e+00 1.375181e-08
-6.770000e+00 1.531310e-08
-6.760000e+00 1.670534e-08
-6.750000e+00 1.791341e-08
-6.740000e+00 1.892561e-08
-6.730000e+00 1.973386e-08
-6.720000e+00 2.033372e-08
-6.710000e+00 2.072451e-08
-6.700000e+00 2.090916e-08
-6.690000e+00 2.089419e-08
-6.680000e+00 2.068944e-08
-6.670000e+00 2.030789e-08
-6.660000e+00 1.976529e-08
-6.650000e+00 1.907985e-08
-6.640000e+00 1.827181e-08
-6.630000e+00 1.736301e-08
-6.620000e+00 1.637641e-08
-6.610000e+00 1.533558e-08
-6.600000e+00 1.426425e-08
-6.590000e+00 1.318577e-08
-6.580000e+00 1.212266e-08
-6.570000e+00 1.109610e-08
-6.560000e+00 1.012552e-08
-6.550000e+00 9.228230e-09
-6.540000e+00 8.419011e-09
-6.530000e+00 7.709867e-09
-6.520000e+00 7.109767e-09
-6.510000e+00 6.624487e-09
-6.500000e+00 6.256498e-09
-6.490000e+00 6.004944e-09
-6.480000e+00 5.865678e-09
-6.470000e+00 5.831374e-09
-6.460000e+00 5.891715e-09
-6.450000e+00 6.033629e-09
-6.440000e+00 6.241609e-09
-6.430000e+00 6.498067e-09
-6.420000e+00 6.783747e-09
-6.410000e+00 7.078178e-09
-6.400000e+00 7.360152e-09
-6.390000e+00 7.608226e-09
-6.380000e+00 7.801236e-09
-6.370000e+00 7.918803e-09
-6.360000e+00 7.941848e-09
-6.350000e+00 7.853060e-09
-6.340000e+00 7.637351e-09
-6.330000e+00 7.282272e-09
-6.320000e+00 6.778363e-09
-6.310000e+00 6.119463e-09
-6.300000e+00 5.302947e-09
-6.290000e+00 4.329894e-09
-6.280000e+00 3.205180e-09
-6.270000e+00 1.937500e-09
-6.260000e+00 5.392977e-10
-6.250000e+00 -9.733667e-10
-6.240000e+00 -2.581039e-09
-6.230000e+00 -4.261161e-09
-6.220000e+00 -5.988431e-09
-6.210000e+00 -7.735227e-09
-6.200000e+00 -9.472083e-09
-6.190000e+00 -1.116822e-08
-6.180000e+00 -1.279212e-08
-6.170000e+00 -1.431207e-08
-6.160000e+00 -1.569684e-08
-6.150000e+00 -1.691623e-08
-6.140000e+00 -1.794169e-08
-6.130000e+00 -1.874693e-08
-6.120000e+00 -1.930844e-08
-6.110000e+00 -1.960600e-08
-6.100000e+00 -1.962317e-08
-6.090000e+00 -1.934762e-08
-6.080000e+00 -1.877154e-08
-6.070000e+00 -1.789179e-08
-6.060000e+00 -1.671016e-08
-6.050000e+00 -1.523336e-08
-6.040000e+00 -1.347303e-08
-6.030000e+00 -1.144565e-08
-6.020000e+00 -9.172320e-09
-6.010000e+00 -6.678466e-09
-6.000000e+00 -3.993470e-09
-5.990000e+00 -1.150219e-09
-5.980000e+00 1.815429e-09
-5.970000e+00 4.865229e-09
-5.960000e+00 7.959192e-09
-5.950000e+00 1.105626e-08
-5.940000e+00 1.411505e-08
-5.930000e+00 1.709453e-08
-5.920000e+00 1.995480e-08
-5.910000e+00 2.265780e-08
-5.900000e+00 2.516799e-08
-5.890000e+00 2.745303e-08
-5.880000e+00 2.948440e-08
-5.870000e+00 3.123795e-08
-5.860000e+00 3.269433e-08
-5.850000e+00 3.383948e-08
-5.840000e+00 3.466485e-08
-5.830000e+00 3.516765e-08
-5.820000e+00 3.535096e-08
-5.810000e+00 3.522374e-08
-5.800000e+00 3.480070e-08
-5.790000e+00 3.410210e-08
-5.780000e+00 3.315348e-08
-5.770000e+00 3.198520e-08
-5.760000e+00 3.063195e-08
-5.750000e+00 2.913221e-08
-5.740000e+00 2.752753e-08
-5.730000e+00 2.586184e-08
-5.720000e+00 2.418069e-08
-5.710000e+00 2.253041e-08
-5.700000e+00 2.095732e-08
-5.690000e+00 1.950685e-08
-5.680000e+00 1.822274e-08
-5.670000e+00 1.714623e-08
-5.660000e+00 1.631527e-08
-5.650000e+00 1.576380e-08
-5.640000e+00 1.552113e-08
-5.630000e+00 1.561133e-08
-5.620000e+00 1.605273e-08
-5.610000e+00 1.685760e-08
-5.600000e+00 1.803176e-08
-5.590000e+00 1.957451e-08
-5.580000e+00 2.147851e-08
-5.570000e+00 2.372985e-08
-5.560000e+00 2.630824e-08
-5.550000e+00 2.918734e-08
-5.540000e+00 3.233509e-08
-5.530000e+00 3.571428e-08
-5.520000e+00 3.928317e-08
-5.510000e+00 4.299612e-08
-5.500000e+00 4.680442e-08
-5.490000e+00 5.065711e-08
-5.480000e+00 5.450184e-08
-5.470000e+00 5.828581e-08
-5.460000e+00 6.195668e-08
-5.450000e+00 6.546347e-08
-5.440000e+00 6.875757e-08
-5.430000e+00 7.179349e-08
-5.420000e+00 7.452979e-08
-5.410000e+00 7.692979e-08
-5.400000e+00 7.896229e-08
-5.390000e+00 8.060215e-08
-5.380000e+00 8.183078e-08
-5.370000e+00 8.263658e-08
-5.360000e+00 8.301512e-08
-5.350000e+00 8.296937e-08
-5.340000e+00 8.250965e-08
-5.330000e+00 8.165359e-08
-5.320000e+00 8.042579e-08
-5.310000e+00 7.885758e-08
-5.300000e+00 7.698649e-08
-5.290000e+00 7.485563e-08
-5.280000e+00 7.251305e-08
-5.270000e+00 7.001095e-08
-5.260000e+00 6.740483e-08
-5.250000e+00 6.475260e-08
-5.240000e+00 6.211358e-08
-5.230000e+00 5.954756e-08
-5.220000e+00 5.711379e-08
-5.210000e+00 5.487001e-08
-5.200000e+00 5.287143e-08
-5.190000e+00 5.116987e-08
-5.180000e+00 4.981284e-08
-5.170000e+00 4.884279e-08
-5.160000e+00 4.829636e-08
-5.150000e+00 4.820378e-08
-5.140000e+00 4.858835e-08
-5.130000e+00 4.946606e-08
-5.120000e+00 5.084535e-08
-5.110000e+00 5.272694e-08
-5.100000e+00 5.510383e-08
-5.090000e+00 5.796144e-08
-5.080000e+00 6.127787e-08
-5.070000e+00 6.502430e-08
-5.060000e+00 6.916541e-08
-5.050000e+00 7.366010e-08
-5.040000e+00 7.846211e-08
-5.030000e+00 8.352089e-08
-5.020000e+00 8.878239e-08
-5.010000e+00 9.419006e-08
-5.000000e+00 9.968578e-08
-4.990000e+00 1.052108e-07
-4.980000e+00 1.107069e-07
-4.970000e+00 1.161173e-07
-4.960000e+00 1.213873e-07
-4.950000e+00 1.264659e-07
-4.940000e+00 1.313059e-07
-4.930000e+00 1.358654e-07
-4.920000e+00 1.401079e-07
-4.910000e+00 1.440030e-07
-4.900000e+00 1.475274e-07
-4.890000e+00 1.506646e-07
-4.880000e+00 1.534056e-07
-4.870000e+00 1.557486e-07
-4.860000e+00 1.576996e-07
-4.850000e+00 1.592717e-07
-4.840000e+00 1.604850e-07
-4.830000e+00 1.613663e-07
-4.820000e+00 1.619486e-07
-4.810000e+00 1.622705e-07
-4.800000e+00 1.623754e-07
-4.790000e+00 1.623108e-07
-4.780000e+00 1.621275e-07
-4.770000e+00 1.618785e-07
-4.760000e+00 1.616184e-07
-4.750000e+00 1.614023e-07
-4.740000e+00 1.612848e-07
-4.730000e+00 1.613190e-07
-4.720000e+00 1.615560e-07
-4.710000e+00 1.620434e-07
-4.700000e+00 1.628253e-07
-4.690000e+00 1.639408e-07
-4.680000e+00 1.654238e-07
-4.670000e+00 1.673025e-07
-4.660000e+00 1.695987e-07
-4.650000e+00 1.723278e-07
-4.640000e+00 1.754984e-07
-4.630000e+00 1.791121e-07
-4.620000e+00 1.831641e-07
-4.610000e+00 1.876427e-07
-4.600000e+00 1.925299e-07
-4.590000e+00 1.978017e-07
-4.580000e+00 2.034288e-07
-4.570000e+00 2.093769e-07
-4.560000e+00 2.156076e-07
-4.550000e+00 2.220789e-07
-4.540000e+00 2.287462e-07
-4.530000e+00 2.355631e-07
-4.520000e+00 2.424820e-07
-4.510000e+00 2.494555e-07
-4.500000e+00 2.564366e-07
-4.490000e+00 2.633800e-07
-4.480000e+00 2.702429e-07
-4.470000e+00 2.769855e-07
-4.460000e+00 2.835720e-07
-4.450000e+00 2.899708e-07
-4.440000e+00 2.961557e-07
-4.430000e+00 3.021055e-07
-4.420000e+00 3.078052e-07
-4.410000e+00 3.132457e-07
-4.400000e+00 3.184238e-07
-4.390000e+00 3.233430e-07
-4.380000e+00 3.280126e-07
-4.370000e+00 3.324479e-07
-4.360000e+00 3.366697e-07
-4.350000e+00 3.407042e-07
-4.340000e+00 3.445824e-07
-4.330000e+00 3.483392e-07
-4.320000e+00 3.520134e-07
-4.310000e+00 3.556467e-07
-4.300000e+00 3.592826e-07
-4.290000e+00 3.629664e-07
-4.280000e+00 3.667438e-07
-4.270000e+00 3.706606e-07
-4.260000e+00 3.747615e-07
-4.250000e+00 3.790897e-07
-4.240000e+00 3.836860e-07
-4.230000e+00 3.885884e-07
-4.220000e+00 3.938310e-07
-4.210000e+00 3.994442e-07
-4.200000e+00 4.054536e-07
-4.190000e+00 4.118800e-07
-4.180000e+00 4.187391e-07
-4.170000e+00 4.260413e-07
-4.160000e+00 4.337915e-07
-4.150000e+00 4.419893e-07
-4.140000e+00 4.506291e-07
-4.130000e+00 4.597001e-07
-4.120000e+00 4.691867e-07
-4.110000e+00 4.790692e-07
-4.100000e+00 4.893237e-07
-4.090000e+00 4.999227e-07
-4.080000e+00 5.108362e-07
-4.070000e+00 5.220316e-07
-4.060000e+00 5.334746e-07
-4.050000e+00 5.451299e-07
-4.040000e+00 5.569618e-07
-4.030000e+00 5.689349e-07
-4.020000e+00 5.810146e-07
-4.010000e+00 5.931677e-07
-4.000000e+00 6.053631e-07
-3.990000e+00 6.175723e-07
-3.980000e+00 6.297693e-07
-3.970000e+00 6.419322e-07
-3.960000e+00 6.540421e-07
-3.950000e+00 6.660844e-07
-3.940001e+00 6.780485e-07
-3.930000e+00 6.899280e-07
-3.920000e+00 7.017204e-07
-3.910000e+00 7.134277e-07
-3.900001e+00 7.250555e-07
-3.890000e+00 7.366134e-07
-3.880000e+00 7.481144e-07
-3.870000e+00 7.595745e-07
-3.860001e+00 7.710125e-07
-3.850000e+00 7.824497e-07
-3.840000e+00 7.939087e-07
-3.830000e+00 8.054141e-07
-3.820001e+00 8.169908e-07
-3.810000e+00 8.286644e-07
-3.800000e+00 8.404603e-07
-3.790000e+00 8.524031e-07
-3.780000e+00 8.645163e-07
-3.770000e+00 8.768221e-07
-3.760000e+00 8.893408e-07
-3.750000e+00 9.020902e-07
-3.740000e+00 9.150859e-07
-3.730000e+00 9.283408e-07
-3.720000e+00 9.418646e-07
-3.710000e+00 9.556645e-07
-3.700000e+00 9.697445e-07
-3.690001e+00 9.841057e-07
-3.680000e+00 9.987463e-07
-3.670000e+00 1.013662e-06
-3.660000e+00 1.028846e-06
-3.650001e+00 1.044289e-06
-3.640000e+00 1.059981e-06
-3.630000e+00 1.075908e-06
-3.620000e+00 1.092059e-06
-3.610001e+00 1.108418e-06
-3.600000e+00 1.124971e-06
-3.590000e+00 1.141704e-06
-3.580000e+00 1.158603e-06
-3.570001e+00 1.175656e-06
-3.560000e+00 1.192851e-06
-3.550000e+00 1.210179e-06
-3.540000e+00 1.227631e-06
-3.530000e+00 1.245203e-06
-3.520000e+00 1.262893e-06
-3.510000e+00 1.280699e-06
-3.500000e+00 1.298626e-06
-3.490000e+00 1.316679e-06
-3.480000e+00 1.334867e-06
-3.470000e+00 1.353202e-06
-3.460000e+00 1.371699e-06
-3.450000e+00 1.390375e-06
-3.440001e+00 1.409249e-06
-3.430000e+00 1.428346e-06
-3.420000e+00 1.447687e-06
-3.410000e+00 1.467300e-06
-3.400001e+00 1.487210e-06
-3.390000e+00 1.507447e-06
-3.380000e+00 1.528038e-06
-3.370000e+00 1.549011e-06
-3.360001e+00 1.570394e-06
-3.350000e+00 1.592215e-06
-3.340000e+00 1.614500e-06
-3.330000e+00 1.637274e-06
-3.320001e+00 1.660559e-06
-3.310000e+00 1.684375e-06
-3.300000e+00 1.708742e-06
-3.290000e+00 1.733675e-06
-3.280000e+00 1.759187e-06
-3.270000e+00 1.785288e-06
-3.260000e+00 1.811984e-06
-3.250000e+00 1.839280e-06
-3.240000e+00 1.867178e-06
-3.230000e+00 1.895675e-06
-3.220000e+00 1.924767e-06
-3.210000e+00 1.954447e-06
-3.200000e+00 1.984705e-06
-3.190001e+00 2.015532e-06
-3.180000e+00 2.046913e-06
-3.170000e+00 2.078835e-06
-3.160000e+00 2.111280e-06
-3.150001e+00 2.144234e-06
-3.140000e+00 2.177679e-06
-3.130000e+00 2.211598e-06
-3.120000e+00 2.245976e-06
-3.110001e+00 2.280795e-06
-3.100000e+00 2.316040e-06
-3.090000e+00 2.351699e-06
-3.080000e+00 2.387757e-06
-3.070001e+00 2.424204e-06
-3.060000e+00 2.461030e-06
-3.050000e+00 2.498229e-06
-3.040000e+00 2.535794e-06
-3.030000e+00 2.573723e-06
-3.020000e+00 2.612014e-06
-3.010000e+00 2.650666e-06
-3.000000e+00 2.689683e-06
-2.990000e+00 2.729069e-06
-2.980000e+00 2.768829e-06
-2.970000e+00 2.808971e-06
-2.960000e+00 2.849501e-06
-2.950000e+00 2.890431e-06
-2.940001e+00 2.931768e-06
-2.930000e+00 2.973523e-06
-2.920000e+00 3.015707e-06
-2.910000e+00 3.058329e-06
-2.900001e+00 3.101399e-06
-2.890000e+00 3.144926e-06
-2.880000e+00 3.188917e-06
-2.870000e+00 3.233381e-06
-2.860001e+00 3.278322e-06
-2.850000e+00 3.323746e-06
-2.840000e+00 3.369654e-06
-2.830000e+00 3.416048e-06
-2.820001e+00 3.462928e-06
-2.810000e+00 3.510293e-06
-2.800000e+00 3.558140e-06
-2.790000e+00 3.606463e-06
-2.780000e+00 3.655258e-06
-2.770000e+00 3.704518e-06
-2.760000e+00 3.754235e-06
-2.750000e+00 3.804403e-06
-2.740000e+00 3.855012e-06
-2.730000e+00 3.906054e-06
-2.720000e+00 3.957523e-06
-2.710000e+00 4.009412e-06
-2.700000e+00 4.061714e-06
-2.690001e+00 4.114424e-06
-2.680000e+00 4.167541e-06
-2.670000e+00 4.221063e-06
-2.660000e+00 4.274990e-06
-2.650001e+00 4.329327e-06
-2.640000e+00 4.384081e-06
-2.630000e+00 4.439258e-06
-2.620000e+00 4.494873e-06
-2.610001e+00 4.550939e-06
-2.600000e+00 4.607475e-06
-2.590000e+00 4.664500e-06
-2.580000e+00 4.722039e-06
-2.570001e+00 4.780118e-06
-2.560000e+00 4.838767e-06
-2.550000e+00 4.898016e-06
-2.540000e+00 4.957899e-06
-2.530001e+00 5.018452e-06
-2.520000e+00 5.079711e-06
-2.510000e+00 5.141714e-06
-2.500000e+00 5.204500e-06
-2.490000e+00 5.268107e-06
-2.480000e+00 5.332574e-06
-2.470000e+00 5.397940e-06
-2.460000e+00 5.464241e-06
-2.450000e+00 5.531512e-06
-2.440001e+00 5.599788e-06
-2.430000e+00 5.669099e-06
-2.420000e+00 5.739475e-06
-2.410000e+00 5.810941e-06
-2.400001e+00 5.883518e-06
-2.390000e+00 5.957228e-06
-2.380000e+00 6.032084e-06
-2.370000e+00 6.108097e-06
-2.360001e+00 6.185275e-06
-2.350000e+00 6.263620e-06
-2.340000e+00 6.343132e-06
-2.330000e+00 6.423806e-06
-2.320001e+00 6.505632e-06
-2.310000e+00 6.588598e-06
-2.300000e+00 6.672689e-06
-2.290000e+00 6.757886e-06
-2.280001e+00 6.844166e-06
-2.270000e+00 6.931505e-06
-2.260000e+00 7.019877e-06
-2.250000e+00 7.109253e-06
-2.240000e+00 7.199605e-06
-2.230000e+00 7.290903e-06
-2.220000e+00 7.383116e-06
-2.210000e+00 7.476215e-06
-2.200000e+00 7.570171e-06
-2.190001e+00 7.664956e-06
-2.180000e+00 7.760542e-06
-2.170000e+00 7.856908e-06
-2.160000e+00 7.954030e-06
-2.150001e+00 8.051889e-06
-2.140000e+00 8.150470e-06
-2.130000e+00 8.249761e-06
-2.120000e+00 8.349751e-06
-2.110001e+00 8.450436e-06
-2.100000e+00 8.551814e-06
-2.090000e+00 8.653888e-06
-2.080000e+00 8.756662e-06
-2.070001e+00 8.860148e-06
-2.060000e+00 8.964358e-06
-2.050000e+00 9.069308e-06
-2.040000e+00 9.175021e-06
-2.030001e+00 9.281518e-06
-2.020000e+00 9.388823e-06
-2.010000e+00 9.496966e-06
-2.000000e+00 9.605975e-06
-1.990000e+00 9.715881e-06
-1.980000e+00 9.826717e-06
-1.970000e+00 9.938515e-06
-1.960000e+00 1.005131e-05
-1.950000e+00 1.016513e-05
-1.940001e+00 1.028001e-05
-1.930000e+00 1.039597e-05
-1.920000e+00 1.051306e-05
-1.910000e+00 1.063129e-05
-1.900001e+00 1.075070e-05
-1.890000e+00 1.087129e-05
-1.880000e+00 1.099310e-05
-1.870000e+00 1.111615e-05
-1.860001e+00 1.124044e-05
-1.850000e+00 1.136598e-05
-1.840000e+00 1.149279e-05
-1.830000e+00 1.162088e-05
-1.820001e+00 1.175023e-05
-1.810000e+00 1.188087e-05
-1.800000e+00 1.201277e-05
-1.790000e+00 1.214593e-05
-1.780001e+00 1.228036e-05
-1.770000e+00 1.241603e-05
-1.760000e+00 1.255295e-05
-1.750000e+00 1.269109e-05
-1.740000e+00 1.283045e-05
-1.730000e+00 1.297101e-05
-1.720000e+00 1.311276e-05
-1.710000e+00 1.325570e-05
-1.700000e+00 1.339981e-05
-1.690001e+00 1.354508e-05
-1.680000e+00 1.369151e-05
-1.670000e+00 1.383909e-05
-1.660000e+00 1.398782e-05
-1.650001e+00 1.413770e-05
-1.640000e+00 1.428874e-05
-1.630000e+00 1.444094e-05
-1.620000e+00 1.459432e-05
-1.610001e+00 1.474888e-05
-1.600000e+00 1.490464e-05
-1.590000e+00 1.506163e-05
-1.580000e+00 1.521986e-05
-1.570001e+00 1.537938e-05
-1.560000e+00 1.554019e-05
-1.550000e+00 1.570234e-05
-1.540000e+00 1.586585e-05
-1.530001e+00 1.603077e-05
-1.520000e+00 1.619713e-05
-1.510000e+00 1.636497e-05
-1.500000e+00 1.653432e-05
-1.490000e+00 1.670522e-05
-1.480000e+00 1.687771e-05
-1.470000e+00 1.705183e-05
-1.460000e+00 1.722760e-05
-1.450000e+00 1.740505e-05
-1.440001e+00 1.758422e-05
-1.430000e+00 1.776513e-05
-1.420000e+00 1.794779e-05
-1.410000e+00 1.813223e-05
-1.400001e+00 1.831846e-05
-1.390000e+00 1.850648e-05
-1.380000e+00 1.869629e-05
-1.370000e+00 1.888790e-05
-1.360001e+00 1.908130e-05
-1.350000e+00 1.927646e-05
-1.340000e+00 1.947338e-05
-1.330000e+00 1.967203e-05
-1.320001e+00 1.987238e-05
-1.310000e+00 2.007440e-05
-1.300000e+00 2.027806e-05
-1.290000e+00 2.048332e-05
-1.280001e+00 2.069013e-05
-1.270000e+00 2.089846e-05
-1.260000e+00 2.110825e-05
-1.250000e+00 2.131946e-05
-1.240000e+00 2.153205e-05
-1.230000e+00 2.174596e-05
-1.220000e+00 2.196116e-05
-1.210000e+00 2.217760e-05
-1.200000e+00 2.239524e-05
-1.190001e+00 2.261405e-05
-1.180000e+00 2.283399e-05
-1.170000e+00 2.305503e-05
-1.160000e+00 2.327715e-05
-1.150001e+00 2.350034e-05
-1.140000e+00 2.372457e-05
-1.130000e+00 2.394984e-05
-1.120000e+00 2.417615e-05
-1.110001e+00 2.440351e-05
-1.100000e+00 2.463193e-05
-1.090000e+00 2.486143e-05
-1.080000e+00 2.509203e-05
-1.070001e+00 2.532376e-05
-1.060000e+00 2.555665e-05
-1.050000e+00 2.579075e-05
-1.040000e+00 2.602610e-05
-1.030001e+00 2.626274e-05
-1.020000e+00 2.650073e-05