-1.200000e+01 0.000000e+00
-1.199000e+01 0.000000e+00
-1.198000e+01 0.000000e+00
-1.197000e+01 0.000000e+00
-1.196000e+01 0.000000e+00
-1.195000e+01 0.000000e+00
-1.194000e+01 1.401298e-45
-1.193000e+01 -2.977908e-36
-1.192000e+01 -4.611729e-35
-1.191000e+01 -3.820398e-34
-1.190000e+01 -2.247916e-33
-1.189000e+01 -1.052976e-32
-1.188000e+01 -4.174487e-32
-1.187000e+01 -1.454626e-31
-1.186000e+01 -4.569903e-31
-1.185000e+01 -1.318069e-30
-1.184000e+01 -3.537446e-30
-1.183000e+01 -8.925716e-30
-1.182000e+01 -2.134621e-29
-1.181000e+01 -4.870235e-29
-1.180000e+01 -1.065705e-28
-1.179000e+01 -2.246424e-28
-1.178000e+01 -4.578409e-28
-1.177000e+01 -9.050267e-28
-1.176000e+01 -1.739771e-27
-1.175000e+01 -3.259920e-27
-1.174000e+01 -5.965894e-27
-1.173000e+01 -1.068215e-26
-1.172000e+01 -1.874247e-26
-1.171000e+01 -3.226806e-26
-1.170000e+01 -5.457894e-26
-1.169000e+01 -9.079376e-26
-1.168000e+01 -1.486928e-25
-1.167000e+01 -2.399439e-25
-1.166000e+01 -3.818230e-25
-1.165000e+01 -5.996000e-25
-1.164000e+01 -9.298128e-25
-1.163000e+01 -1.424709e-24
-1.162000e+01 -2.158211e-24
-1.161000e+01 -3.233852e-24
-1.160000e+01 -4.795217e-24
-1.159000e+01 -7.039579e-24
-1.158000e+01 -1.023551e-23
-1.157000e+01 -1.474544e-23
-1.156000e+01 -2.105434e-23
-1.155000e+01 -2.980580e-23
-1.154000e+01 -4.184710e-23
-1.153000e+01 -5.828497e-23
-1.152000e+01 -8.055417e-23
-1.151000e+01 -1.105009e-22
-1.150000e+01 -1.504837e-22
-1.149000e+01 -2.034944e-22
-1.148000e+01 -2.733017e-22
-1.147000e+01 -3.646206e-22
-1.146000e+01 -4.833109e-22
-1.145000e+01 -6.366069e-22
-1.144000e+01 -8.333816e-22
-1.143000e+01 -1.084448e-21
-1.142000e+01 -1.402901e-21
-1.141000e+01 -1.804494e-21
-1.140000e+01 -2.308066e-21
-1.139000e+01 -2.936000e-21
-1.138000e+01 -3.714725e-21
-1.137000e+01 -4.675256e-21
-1.136000e+01 -5.853751e-21
-1.135000e+01 -7.292106e-21
-1.134000e+01 -9.038553e-21
-1.133000e+01 -1.114826e-20
-1.132000e+01 -1.368389e-20
-1.131000e+01 -1.671620e-20
-1.130000e+01 -2.032444e-20
-1.129000e+01 -2.459684e-20
-1.128000e+01 -2.963082e-20
-1.127000e+01 -3.553314e-20
-1.126000e+01 -4.241987e-20
-1.125000e+01 -5.041604e-20
-1.124000e+01 -5.965517e-20
-1.123000e+01 -7.027832e-20
-1.122000e+01 -8.243290e-20
-1.121000e+01 -9.627102e-20
-1.120000e+01 -1.119475e-19
-1.119000e+01 -1.296171e-19
-1.118000e+01 -1.494317e-19
-1.117000e+01 -1.715366e-19
-1.116000e+01 -1.960661e-19
-1.115000e+01 -2.231391e-19
-1.114000e+01 -2.528537e-19
-1.113000e+01 -2.852809e-19
-1.112000e+01 -3.204588e-19
-1.111000e+01 -3.583856e-19
-1.110000e+01 -3.990121e-19
-1.109000e+01 -4.422345e-19
-1.108000e+01 -4.878864e-19
-1.107000e+01 -5.357318e-19
-1.106000e+01 -5.854567e-19
-1.105000e+01 -6.366629e-19
-1.104000e+01 -6.888603e-19
-1.103000e+01 -7.414625e-19
-1.102000e+01 -7.937802e-19
-1.101000e+01 -8.450195e-19
-1.100000e+01 -8.942791e-19
-1.099000e+01 -9.405500e-19
-1.098000e+01 -9.827181e-19
-1.097000e+01 -1.019568e-18
-1.096000e+01 -1.049791e-18
-1.095000e+01 -1.071992e-18
-1.094000e+01 -1.084706e-18
-1.093000e+01 -1.086410e-18
-1.092000e+01 -1.075545e-18
-1.091000e+01 -1.050535e-18
-1.090000e+01 -1.009812e-18
-1.089000e+01 -9.518462e-19
-1.088000e+01 -8.751728e-19
-1.087000e+01 -7.784261e-19
-1.086000e+01 -6.603737e-19
-1.085000e+01 -5.199520e-19
-1.084000e+01 -3.563021e-19
-1.083000e+01 -1.688069e-19
-1.082000e+01 4.287349e-20
-1.081000e+01 2.787671e-19
-1.080000e+01 5.385577e-19
-1.079000e+01 8.215558e-19
-1.078000e+01 1.126673e-18
-1.077000e+01 1.452402e-18
-1.076000e+01 1.796800e-18
-1.075000e+01 2.157480e-18
-1.074000e+01 2.531609e-18
-1.073000e+01 2.915913e-18
-1.072000e+01 3.306686e-18
-1.071000e+01 3.699813e-18
-1.070000e+01 4.090796e-18
-1.069000e+01 4.474789e-18
-1.068000e+01 4.846636e-18
-1.067000e+01 5.200920e-18
-1.066000e+01 5.532018e-18
-1.065000e+01 5.834152e-18
-1.064000e+01 6.101452e-18
-1.063000e+01 6.328010e-18
-1.062000e+01 6.507946e-18
-1.061000e+01 6.635460e-18
-1.060000e+01 6.704887e-18
-1.059000e+01 6.710748e-18
-1.058000e+01 6.647785e-18
-1.057000e+01 6.510997e-18
-1.056000e+01 6.295663e-18
-1.055000e+01 5.997356e-18
-1.054000e+01 5.611945e-18
-1.053000e+01 5.135592e-18
-1.052000e+01 4.564730e-18
-1.051000e+01 3.896050e-18
-1.050000e+01 3.126463e-18
-1.049000e+01 2.253078e-18
-1.048000e+01 1.273170e-18
-1.047000e+01 1.841555e-19
-1.046000e+01 -1.016418e-18
-1.045000e+01 -2.330867e-18
-1.044000e+01 -3.761353e-18
-1.043000e+01 -5.309822e-18
-1.042000e+01 -6.977924e-18
-1.041000e+01 -8.766880e-18
-1.040000e+01 -1.067732e-17
-1.039000e+01 -1.270904e-17
-1.038000e+01 -1.486074e-17
-1.037000e+01 -1.712969e-17
-1.036000e+01 -1.951132e-17
-1.035000e+01 -2.199879e-17
-1.034000e+01 -2.458244e-17
-1.033000e+01 -2.724929e-17
-1.032000e+01 -2.998239e-17
-1.031000e+01 -3.276021e-17
-1.030000e+01 -3.555601e-17
-1.029000e+01 -3.833717e-17
-1.028000e+01 -4.106457e-17
-1.027000e+01 -4.369203e-17
-1.026000e+01 -4.616579e-17
-1.025000e+01 -4.842413e-17
-1.024000e+01 -5.039707e-17
-1.023000e+01 -5.200633e-17
-1.022000e+01 -5.316537e-17
-1.021000e+01 -5.377977e-17
-1.020000e+01 -5.374784e-17
-1.019000e+01 -5.296154e-17
-1.018000e+01 -5.130770e-17
-1.017000e+01 -4.866966e-17
-1.016000e+01 -4.492923e-17
-1.015000e+01 -3.996906e-17
-1.014000e+01 -3.367541e-17
-1.013000e+01 -2.594129e-17
-1.012000e+01 -1.666999e-17
-1.011000e+01 -5.778908e-18
-1.010000e+01 6.796226e-18
-1.009000e+01 2.109700e-17
-1.008000e+01 3.713770e-17
-1.007000e+01 5.490063e-17
-1.006000e+01 7.433142e-17
-1.005000e+01 9.533449e-17
-1.004000e+01 1.177687e-16
-1.003000e+01 1.414432e-16
-1.002000e+01 1.661145e-16
-1.001000e+01 1.914831e-16
-1.000000e+01 2.171920e-16
-9.990000e+00 2.428253e-16
-9.980000e+00 2.679089e-16
-9.970000e+00 2.919117e-16
-9.960000e+00 3.142485e-16
-9.950000e+00 3.342848e-16
-9.940001e+00 3.513426e-16
-9.930000e+00 3.647085e-16
-9.920000e+00 3.736438e-16
-9.910000e+00 3.773955e-16
-9.900000e+00 3.752101e-16
-9.890000e+00 3.663487e-16
-9.880000e+00 3.501038e-16
-9.870000e+00 3.258176e-16
-9.860001e+00 2.929016e-16
-9.850000e+00 2.508569e-16
-9.840000e+00 1.992958e-16
-9.830000e+00 1.379635e-16
-9.820000e+00 6.675892e-17
-9.809999e+00 -1.424366e-17
-9.800000e+00 -1.047752e-16
-9.790000e+00 -2.043536e-16
-9.780000e+00 -3.122678e-16
-9.770000e+00 -4.275643e-16
-9.760000e+00 -5.490377e-16
-9.750000e+00 -6.752246e-16
-9.740000e+00 -8.044027e-16
-9.730000e+00 -9.345939e-16
-9.720000e+00 -1.063574e-15
-9.710000e+00 -1.188889e-15
-9.700000e+00 -1.307875e-15
-9.690001e+00 -1.417687e-15
-9.680000e+00 -1.515335e-15
-9.670000e+00 -1.597723e-15
-9.660000e+00 -1.661703e-15
-9.650000e+00 -1.704120e-15
-9.640000e+00 -1.721882e-15
-9.630000e+00 -1.712019e-15
-9.620000e+00 -1.671755e-15
-9.610001e+00 -1.598584e-15
-9.600000e+00 -1.490339e-15
-9.590000e+00 -1.345277e-15
-9.580000e+00 -1.162150e-15
-9.570000e+00 -9.402803e-16
-9.559999e+00 -6.796329e-16
-9.550000e+00 -3.808796e-16
-9.540000e+00 -4.545787e-17
-9.530000e+00 3.243805e-16
-9.520000e+00 7.255309e-16
-9.510000e+00 1.154011e-15
-9.500000e+00 1.604948e-15
-9.490000e+00 2.072588e-15
-9.480000e+00 2.550315e-15
-9.470000e+00 3.030691e-15
-9.460000e+00 3.505523e-15
-9.450000e+00 3.965938e-15
-9.440001e+00 4.402488e-15
-9.430000e+00 4.805273e-15
-9.420000e+00 5.164078e-15
-9.410000e+00 5.468543e-15
-9.400000e+00 5.708330e-15
-9.390000e+00 5.873327e-15
-9.380000e+00 5.953850e-15
-9.370000e+00 5.940861e-15
-9.360001e+00 5.826192e-15
-9.350000e+00 5.602775e-15
-9.340000e+00 5.264866e-15
-9.330000e+00 4.808269e-15
-9.320000e+00 4.230544e-15
-9.309999e+00 3.531206e-15
-9.300000e+00 2.711903e-15
-9.290000e+00 1.776562e-15
-9.280000e+00 7.315146e-16
-9.270000e+00 -4.144174e-16
-9.260000e+00 -1.649877e-15
-9.250000e+00 -2.960967e-15
-9.240000e+00 -4.331295e-15
-9.230000e+00 -5.742068e-15
-9.220000e+00 -7.172237e-15
-9.210000e+00 -8.598700e-15
-9.200000e+00 -9.996554e-15
-9.190001e+00 -1.133941e-14
-9.180000e+00 -1.259974e-14
-9.170000e+00 -1.374932e-14
-9.160000e+00 -1.475963e-14
-9.150000e+00 -1.560241e-14
-9.140000e+00 -1.625015e-14
-9.130000e+00 -1.667667e-14
-9.120000e+00 -1.685767e-14
-9.110001e+00 -1.677134e-14
-9.100000e+00 -1.639893e-14
-9.090000e+00 -1.572532e-14
-9.080000e+00 -1.473957e-14
-9.070000e+00 -1.343541e-14
-9.060000e+00 -1.181172e-14
-9.050000e+00 -9.872917e-15
-9.040000e+00 -7.629291e-15
-9.030000e+00 -5.097226e-15
-9.020000e+00 -2.299361e-15
-9.010000e+00 7.353760e-16
-9.000000e+00 3.971838e-15
-8.990000e+00 7.368852e-15
-8.980000e+00 1.087953e-14
-8.970000e+00 1.445174e-14
-8.960000e+00 1.802861e-14
-8.950000e+00 2.154931e-14
-8.940001e+00 2.494982e-14
-8.930000e+00 2.816386e-14
-8.920000e+00 3.112395e-14
-8.910000e+00 3.376255e-14
-8.900000e+00 3.601322e-14
-8.890000e+00 3.781194e-14
-8.880000e+00 3.909840e-14
-8.870000e+00 3.981731e-14
-8.860001e+00 3.991978e-14
-8.850000e+00 3.936453e-14
-8.840000e+00 3.811924e-14
-8.830000e+00 3.616159e-14
-8.820000e+00 3.348040e-14
-8.810000e+00 3.007648e-14
-8.800000e+00 2.596342e-14
-8.790000e+00 2.116812e-14
-8.780000e+00 1.573120e-14
-8.770000e+00 9.707051e-15
-8.760000e+00 3.163780e-15
-8.750000e+00 -3.817193e-15
-8.740000e+00 -1.114178e-14
-8.730000e+00 -1.870412e-14
-8.720000e+00 -2.638780e-14
-8.710000e+00 -3.406728e-14
-8.700000e+00 -4.160962e-14
-8.690001e+00 -4.887643e-14
-8.680000e+00 -5.572601e-14
-8.670000e+00 -6.201575e-14
-8.660000e+00 -6.760466e-14
-8.650000e+00 -7.235592e-14
-8.640000e+00 -7.613969e-14
-8.630000e+00 -7.883584e-14
-8.620000e+00 -8.033665e-14
-8.610001e+00 -8.054954e-14
-8.600000e+00 -7.939958e-14
-8.590000e+00 -7.683186e-14
-8.580000e+00 -7.281364e-14
-8.570000e+00 -6.733624e-14
-8.560000e+00 -6.041652e-14
-8.550000e+00 -5.209807e-14
-8.540000e+00 -4.245189e-14
-8.530000e+00 -3.157669e-14
-8.520000e+00 -1.959863e-14
-8.510000e+00 -6.670561e-15
-8.500000e+00 7.029244e-15
-8.490000e+00 2.129891e-14
-8.480000e+00 3.591534e-14
-8.470000e+00 5.063707e-14
-8.460000e+00 6.520765e-14
-8.450000e+00 7.935951e-14
-8.440001e+00 9.281818e-14
-8.430000e+00 1.053069e-13
-8.420000e+00 1.165516e-13
-8.410000e+00 1.262860e-13
-8.400000e+00 1.342568e-13
-8.390000e+00 1.402290e-13
-8.380000e+00 1.439913e-13
-8.370000e+00 1.453612e-13
-8.360001e+00 1.441895e-13
-8.350000e+00 1.403656e-13
-8.340000e+00 1.338206e-13
-8.330000e+00 1.245314e-13
-8.320000e+00 1.125234e-13
-8.310000e+00 9.787271e-14
-8.300000e+00 8.070711e-14
-8.290000e+00 6.120686e-14
-8.280000e+00 3.960389e-14
-8.270000e+00 1.618045e-14
-8.260000e+00 -8.733421e-15
-8.250000e+00 -3.476342e-14
-8.240000e+00 -6.149545e-14
-8.230000e+00 -8.848103e-14
-8.220000e+00 -1.152437e-13
-8.210000e+00 -1.412862e-13
-8.200000e+00 -1.660982e-13
-8.190001e+00 -1.891654e-13
-8.180000e+00 -2.099779e-13
-8.170000e+00 -2.280401e-13
-8.160000e+00 -2.428804e-13
-8.150000e+00 -2.540606e-13
-8.140000e+00 -2.611858e-13
-8.130000e+00 -2.639135e-13
-8.120000e+00 -2.619624e-13
-8.110001e+00 -2.551209e-13
-8.100000e+00 -2.432537e-13
-8.090000e+00 -2.263084e-13
-8.080000e+00 -2.043209e-13
-8.070000e+00 -1.774184e-13
-8.060000e+00 -1.458220e-13
-8.050000e+00 -1.098477e-13
-8.040000e+00 -6.990466e-14
-8.030000e+00 -2.649305e-14
-8.020000e+00 1.980066e-14
-8.010000e+00 6.830993e-14
-8.000000e+00 1.182961e-13
-7.990000e+00 1.689579e-13
-7.980000e+00 2.194429e-13
-7.970000e+00 2.688599e-13
-7.960000e+00 3.162928e-13
-7.950000e+00 3.608154e-13
-7.940000e+00 4.015077e-13
-7.930000e+00 4.374717e-13
-7.920000e+00 4.678485e-13
-7.910000e+00 4.918347e-13
-7.900000e+00 5.086991e-13
-7.890000e+00 5.177990e-13
-7.880000e+00 5.185945e-13
-7.870000e+00 5.106630e-13
-7.860000e+00 4.937115e-13
-7.850000e+00 4.675870e-13
-7.840000e+00 4.322854e-13
-7.830000e+00 3.879578e-13
-7.820000e+00 3.349146e-13
-7.810000e+00 2.736265e-13
-7.800000e+00 2.047231e-13
-7.790000e+00 1.289888e-13
-7.780000e+00 4.735555e-14
-7.770000e+00 -3.910740e-14
-7.760000e+00 -1.292060e-13
-7.750000e+00 -2.216371e-13
-7.740000e+00 -3.150063e-13
-7.730000e+00 -4.078482e-13
-7.720000e+00 -4.986485e-13
-7.710000e+00 -5.858682e-13
-7.700000e+00 -6.679680e-13
-7.690000e+00 -7.434353e-13
-7.680000e+00 -8.108100e-13
-7.670000e+00 -8.687112e-13
-7.660000e+00 -9.158632e-13
-7.650000e+00 -9.511206e-13
-7.640000e+00 -9.734917e-13
-7.630000e+00 -9.821604e-13
-7.620000e+00 -9.765059e-13
-7.610000e+00 -9.561185e-13
-7.600000e+00 -9.208138e-13
-7.590000e+00 -8.706419e-13
-7.580000e+00 -8.058943e-13
-7.570000e+00 -7.271052e-13
-7.560000e+00 -6.350500e-13
-7.550000e+00 -5.307387e-13
-7.540000e+00 -4.154053e-13
-7.530000e+00 -2.904928e-13
-7.520000e+00 -1.576346e-13
-7.510000e+00 -1.863107e-14
-7.500000e+00 1.245760e-13
-7.490000e+00 2.699336e-13
-7.480000e+00 4.153093e-13
-7.470000e+00 5.585262e-13
-7.460000e+00 6.973982e-13
-7.450000e+00 8.297683e-13
-7.440000e+00 9.535451e-13
-7.430000e+00 1.066740e-12
-7.420000e+00 1.167505e-12
-7.410000e+00 1.254165e-12
-7.400000e+00 1.325251e-12
-7.390000e+00 1.379530e-12
-7.380000e+00 1.416028e-12
-7.370000e+00 1.434053e-12
-7.360000e+00 1.433213e-12
-7.350000e+00 1.413424e-12
-7.340000e+00 1.374917e-12
-7.330000e+00 1.318240e-12
-7.320000e+00 1.244250e-12
-7.310000e+00 1.154101e-12
-7.300000e+00 1.049228e-12
-7.290000e+00 9.313231e-13
-7.280000e+00 8.023063e-13
-7.270000e+00 6.642929e-13
-7.260000e+00 5.195549e-13
-7.250000e+00 3.704794e-13
-7.240000e+00 2.195236e-13
-7.230000e+00 6.916836e-14
-7.220000e+00 -7.813101e-14
-7.210000e+00 -2.199932e-13
-7.200000e+00 -3.541597e-13
-7.190000e+00 -4.785416e-13
-7.180000e+00 -5.912642e-13
-7.170000e+00 -6.907087e-13
-7.160000e+00 -7.755484e-13
-7.150000e+00 -8.447810e-13
-7.140000e+00 -8.977545e-13
-7.130000e+00 -9.341861e-13
-7.120000e+00 -9.541746e-13
-7.110000e+00 -9.582044e-13
-7.100000e+00 -9.471420e-13
-7.090000e+00 -9.222244e-13
-7.080000e+00 -8.850388e-13
-7.070000e+00 -8.374949e-13
-7.060000e+00 -7.817886e-13
-7.050000e+00 -7.203595e-13
-7.040000e+00 -6.558415e-13
-7.030000e+00 -5.910062e-13
-7.020000e+00 -5.287038e-13
-7.010000e+00 -4.717976e-13
-7.000000e+00 -4.230978e-13
-6.990000e+00 -3.852926e-13
-6.980000e+00 -3.608796e-13
-6.970000e+00 -3.520984e-13
-6.960000e+00 -3.608654e-13
-6.950000e+00 -3.887138e-13
-6.940000e+00 -4.367373e-13
-6.930000e+00 -5.055416e-13
-6.920000e+00 -5.952041e-13
-6.910000e+00 -7.052413e-13
-6.900000e+00 -8.345872e-13
-6.890000e+00 -9.815829e-13
-6.880000e+00 -1.143976e-12
-6.870000e+00 -1.318933e-12
-6.860000e+00 -1.503066e-12
-6.850000e+00 -1.692466e-12
-6.840000e+00 -1.882755e-12
-6.830000e+00 -2.069144e-12
-6.820000e+00 -2.246504e-12
-6.810000e+00 -2.409448e-12
-6.800000e+00 -2.552423e-12
-6.790000e+00 -2.669801e-12
-6.780000e+00 -2.755990e-12
-6.770000e+00 -2.805538e-12
-6.760000e+00 -2.813244e-12
-6.750000e+00 -2.774271e-12
-6.740000e+00 -2.684254e-12
-6.730000e+00 -2.539408e-12
-6.720000e+00 -2.336632e-12
-6.710000e+00 -2.073600e-12
-6.700000e+00 -1.748849e-12
-6.690000e+00 -1.361852e-12
-6.680000e+00 -9.130846e-13
-6.670000e+00 -4.040670e-13
-6.660000e+00 1.625979e-13
-6.650000e+00 7.832102e-13
-6.640000e+00 1.452973e-12
-6.630000e+00 2.166009e-12
-6.620000e+00 2.915400e-12
-6.610000e+00 3.693238e-12
-6.600000e+00 4.490698e-12
-6.590000e+00 5.298124e-12
-6.580000e+00 6.105136e-12
-6.570000e+00 6.900750e-12
-6.560000e+00 7.673505e-12
-6.550000e+00 8.411612e-12
-6.540000e+00 9.103104e-12
-6.530000e+00 9.736000e-12
-6.520000e+00 1.029847e-11
-6.510000e+00 1.077899e-11
-6.500000e+00 1.116655e-11
-6.490000e+00 1.145076e-11
-6.480000e+00 1.162207e-11
-6.470000e+00 1.167190e-11
-6.460000e+00 1.159278e-11
-6.450000e+00 1.137850e-11
-6.440000e+00 1.102420e-11
-6.430000e+00 1.052653e-11
-6.420000e+00 9.883680e-12
-6.410000e+00 9.095482e-12
-6.400000e+00 8.163459e-12
-6.390000e+00 7.090841e-12
-6.380000e+00 5.882588e-12
-6.370000e+00 4.545376e-12
-6.360000e+00 3.087560e-12
-6.350000e+00 1.519131e-12
-6.340000e+00 -1.483612e-13
-6.330000e+00 -1.901894e-12
-6.320000e+00 -3.727079e-12
-6.310000e+00 -5.608283e-12
-6.300000e+00 -7.528764e-12
-6.290000e+00 -9.470821e-12
-6.280000e+00 -1.141595e-11
-6.270000e+00 -1.334501e-11
-6.260000e+00 -1.523840e-11
-6.250000e+00 -1.707623e-11
-6.240000e+00 -1.883852e-11
-6.230000e+00 -2.050536e-11
-6.220000e+00 -2.205708e-11
-6.210000e+00 -2.347448e-11
-6.200000e+00 -2.473896e-11
-6.190000e+00 -2.583269e-11
-6.180000e+00 -2.673880e-11
-6.170000e+00 -2.744154e-11
-6.160000e+00 -2.792636e-11
-6.150000e+00 -2.818017e-11
-6.140000e+00 -2.819136e-11
-6.130000e+00 -2.795000e-11
-6.120000e+00 -2.744792e-11
-6.110000e+00 -2.667882e-11
-6.100000e+00 -2.563839e-11
-6.090000e+00 -2.432438e-11
-6.080000e+00 -2.273668e-11
-6.070000e+00 -2.087741e-11
-6.060000e+00 -1.875099e-11
-6.050000e+00 -1.636415e-11
-6.040000e+00 -1.372603e-11
-6.030000e+00 -1.084819e-11
-6.020000e+00 -7.744623e-12
-6.010000e+00 -4.431800e-12
-6.000000e+00 -9.286456e-13
-5.990000e+00 2.743470e-12
-5.980000e+00 6.560761e-12
-5.970000e+00 1.049708e-11
-5.960000e+00 1.452398e-11
-5.950000e+00 1.861082e-11
-5.940000e+00 2.272486e-11
-5.930000e+00 2.683141e-11
-5.920000e+00 3.089404e-11
-5.910000e+00 3.487471e-11
-5.900000e+00 3.873406e-11
-5.890000e+00 4.243165e-11
-5.880000e+00 4.592628e-11
-5.870000e+00 4.917628e-11
-5.860000e+00 5.213995e-11
-5.850000e+00 5.477589e-11
-5.840000e+00 5.704347e-11
-5.830000e+00 5.890329e-11
-5.820000e+00 6.031766e-11
-5.810000e+00 6.125109e-11
-5.800000e+00 6.167087e-11
-5.790000e+00 6.154754e-11
-5.780000e+00 6.085550e-11
-5.770000e+00 5.957347e-11
-5.760000e+00 5.768508e-11
-5.750000e+00 5.517936e-11
-5.740000e+00 5.205121e-11
-5.730000e+00 4.830185e-11
-5.720000e+00 4.393918e-11
-5.710000e+00 3.897815e-11
-5.700000e+00 3.344101e-11
-5.690000e+00 2.735748e-11
-5.680000e+00 2.076486e-11
-5.670000e+00 1.370802e-11
-5.660000e+00 6.239337e-12
-5.650000e+00 -1.581584e-12
-5.640000e+00 -9.688178e-12
-5.630000e+00 -1.800739e-11
-5.620000e+00 -2.646022e-11
-5.610000e+00 -3.496244e-11
-5.600000e+00 -4.342534e-11
-5.590000e+00 -5.175667e-11
-5.580000e+00 -5.986166e-11
-5.570000e+00 -6.764413e-11
-5.560000e+00 -7.500763e-11
-5.550000e+00 -8.185681e-11
-5.540000e+00 -8.809867e-11
-5.530000e+00 -9.364393e-11
-5.520000e+00 -9.840846e-11
-5.510000e+00 -1.023146e-10
-5.500000e+00 -1.052926e-10
-5.490000e+00 -1.072818e-10
-5.480000e+00 -1.082321e-10
-5.470000e+00 -1.081047e-10
-5.460000e+00 -1.068738e-10
-5.450000e+00 -1.045267e-10
-5.440000e+00 -1.010652e-10
-5.430000e+00 -9.650571e-11
-5.420000e+00 -9.087976e-11
-5.410000e+00 -8.423413e-11
-5.400000e+00 -7.663074e-11
-5.390000e+00 -6.814624e-11
-5.380000e+00 -5.887145e-11
-5.370000e+00 -4.891052e-11
-5.360000e+00 -3.837977e-11
-5.350000e+00 -2.740640e-11
-5.340000e+00 -1.612687e-11
-5.330000e+00 -4.685083e-12
-5.320000e+00 6.769577e-12
-5.310000e+00 1.808447e-11
-5.300000e+00 2.910602e-11
-5.290000e+00 3.968214e-11
-5.280000e+00 4.966481e-11
-5.270000e+00 5.891261e-11
-5.260000e+00 6.729330e-11
-5.250000e+00 7.468636e-11
-5.240000e+00 8.098543e-11
-5.230000e+00 8.610054e-11
-5.220000e+00 8.996037e-11
-5.210000e+00 9.251399e-11
-5.200000e+00 9.373257e-11
-5.190000e+00 9.361067e-11
-5.180000e+00 9.216720e-11
-5.170000e+00 8.944595e-11
-5.160000e+00 8.551580e-11
-5.150000e+00 8.047041e-11
-5.140000e+00 7.442750e-11
-5.130000e+00 6.752768e-11
-5.120000e+00 5.993274e-11
-5.110000e+00 5.182358e-11
-5.100000e+00 4.339763e-11
-5.090000e+00 3.486587e-11
-5.080000e+00 2.644946e-11
-5.070000e+00 1.837603e-11
-5.060000e+00 1.087563e-11
-5.050000e+00 4.176454e-12
-5.040000e+00 -1.499604e-12
-5.030000e+00 -5.941548e-12
-5.020000e+00 -8.953903e-12
-5.010000e+00 -1.036131e-11
-5.000000e+00 -1.001302e-11
-4.990000e+00 -7.787149e-12
-4.980000e+00 -3.594720e-12
-4.970000e+00 2.616731e-12
-4.960000e+00 1.085995e-11
-4.950000e+00 2.110531e-11
-4.940000e+00 3.327872e-11
-4.930000e+00 4.726024e-11
-4.920000e+00 6.288339e-11
-4.910000e+00 7.993525e-11
-4.900000e+00 9.815734e-11
-4.890000e+00 1.172474e-10
-4.880000e+00 1.368618e-10
-4.870000e+00 1.566193e-10
-4.860000e+00 1.761051e-10
-4.850000e+00 1.948760e-10
-4.840000e+00 2.124660e-10
-4.830000e+00 2.283936e-10
-4.820000e+00 2.421680e-10
-4.810000e+00 2.532978e-10
-4.800000e+00 2.612987e-10
-4.790000e+00 2.657021e-10
-4.780000e+00 2.660644e-10
-4.770000e+00 2.619751e-10
-4.760000e+00 2.530663e-10
-4.750000e+00 2.390215e-10
-4.740000e+00 2.195833e-10
-4.730000e+00 1.945617e-10
-4.720000e+00 1.638415e-10
-4.710000e+00 1.273887e-10
-4.700000e+00 8.525568e-11
-4.690000e+00 3.758648e-11
-4.680000e+00 -1.538033e-11
-4.670000e+00 -7.330931e-11
-4.660000e+00 -1.357674e-10
-4.650000e+00 -2.022245e-10
-4.640000e+00 -2.720558e-10
-4.630000e+00 -3.445449e-10
-4.620000e+00 -4.188897e-10
-4.610000e+00 -4.942087e-10
-4.600000e+00 -5.695490e-10
-4.590000e+00 -6.438965e-10
-4.580000e+00 -7.161865e-10
-4.570000e+00 -7.853160e-10
-4.560000e+00 -8.501573e-10
-4.550000e+00 -9.095722e-10
-4.540000e+00 -9.624271e-10
-4.530000e+00 -1.007609e-09
-4.520000e+00 -1.044043e-09
-4.510000e+00 -1.070704e-09
-4.500000e+00 -1.086642e-09
-4.490000e+00 -1.090988e-09
-4.480000e+00 -1.082978e-09
-4.470000e+00 -1.061964e-09
-4.460000e+00 -1.027429e-09
-4.450000e+00 -9.789998e-10
-4.440000e+00 -9.164577e-10
-4.430000e+00 -8.397506e-10
-4.420000e+00 -7.489988e-10
-4.410000e+00 -6.445021e-10
-4.400000e+00 -5.267435e-10
-4.390000e+00 -3.963910e-10
-4.380000e+00 -2.542966e-10
-4.370000e+00 -1.014935e-10
-4.360000e+00 6.080987e-11
-4.350000e+00 2.312375e-10
-4.340000e+00 4.082565e-10
-4.330000e+00 5.901903e-10
-4.320000e+00 7.752330e-10
-4.310000e+00 9.614676e-10
-4.300000e+00 1.146884e-09
-4.290000e+00 1.329402e-09
-4.280000e+00 1.506891e-09
-4.270000e+00 1.677197e-09
-4.260000e+00 1.838165e-09
-4.250000e+00 1.987665e-09
-4.240000e+00 2.123620e-09
-4.230000e+00 2.244028e-09
-4.220000e+00 2.346994e-09
-4.210000e+00 2.430748e-09
-4.200000e+00 2.493674e-09
-4.190000e+00 2.534331e-09
-4.180000e+00 2.551477e-09
-4.170000e+00 2.544084e-09
-4.160000e+00 2.511360e-09
-4.150000e+00 2.452761e-09
-4.140000e+00 2.368004e-09
-4.130000e+00 2.257077e-09
-4.120000e+00 2.120244e-09
-4.110000e+00 1.958050e-09
-4.100000e+00 1.771319e-09
-4.090000e+00 1.561151e-09
-4.080000e+00 1.328915e-09
-4.070000e+00 1.076240e-09
-4.060000e+00 8.050022e-10
-4.050000e+00 5.173039e-10
-4.040000e+00 2.154591e-10
-4.030000e+00 -9.803144e-11
-4.020000e+00 -4.205043e-10
-4.010000e+00 -7.491607e-10
-4.000000e+00 -1.081096e-09
-3.990000e+00 -1.413330e-09
-3.980000e+00 -1.742839e-09
-3.970000e+00 -2.066589e-09
-3.960000e+00 -2.381572e-09
-3.950000e+00 -2.684835e-09
-3.940001e+00 -2.973517e-09
-3.930000e+00 -3.244881e-09
-3.920000e+00 -3.496348e-09
-3.910000e+00 -3.725525e-09
-3.900001e+00 -3.930234e-09
-3.890000e+00 -4.108542e-09
-3.880000e+00 -4.258784e-09
-3.870000e+00 -4.379582e-09
-3.860001e+00 -4.469871e-09
-3.850000e+00 -4.528905e-09
-3.840000e+00 -4.556278e-09
-3.830000e+00 -4.551927e-09
-3.820001e+00 -4.516142e-09
-3.810000e+00 -4.449564e-09
-3.800000e+00 -4.353183e-09
-3.790000e+00 -4.228333e-09
-3.780000e+00 -4.076683e-09
-3.770000e+00 -3.900223e-09
-3.760000e+00 -3.701244e-09
-3.750000e+00 -3.482325e-09
-3.740000e+00 -3.246304e-09
-3.730000e+00 -2.996252e-09
-3.720000e+00 -2.735451e-09
-3.710000e+00 -2.467355e-09
-3.700000e+00 -2.195562e-09
-3.690001e+00 -1.923778e-09
-3.680000e+00 -1.655783e-09
-3.670000e+00 -1.395391e-09
-3.660000e+00 -1.146417e-09
-3.650001e+00 -9.126351e-10
-3.640000e+00 -6.977448e-10
-3.630000e+00 -5.053324e-10
-3.620000e+00 -3.388358e-10
-3.610001e+00 -2.015095e-10
-3.600000e+00 -9.639153e-11
-3.590000e+00 -2.627256e-11
-3.580000e+00 6.333555e-12
-3.570001e+00 -7.838541e-13
-3.560000e+00 -4.950822e-11
-3.550000e+00 -1.413748e-10
-3.540000e+00 -2.775528e-10
-3.530000e+00 -4.588306e-10
-3.520000e+00 -6.856047e-10
-3.510000e+00 -9.578724e-10
-3.500000e+00 -1.275227e-09
-3.490000e+00 -1.636858e-09
-3.480000e+00 -2.041554e-09
-3.470000e+00 -2.487712e-09
-3.460000e+00 -2.973342e-09
-3.450000e+00 -3.496091e-09
-3.440001e+00 -4.053249e-09
-3.430000e+00 -4.641781e-09
-3.420000e+00 -5.258345e-09
-3.410000e+00 -5.899319e-09
-3.400001e+00 -6.560837e-09
-3.390000e+00 -7.238814e-09
-3.380000e+00 -7.928987e-09
-3.370000e+00 -8.626951e-09
-3.360001e+00 -9.328194e-09
-3.350000e+00 -1.002815e-08
-3.340000e+00 -1.072221e-08
-3.330000e+00 -1.140582e-08
-3.320001e+00 -1.207446e-08
-3.310000e+00 -1.272373e-08
-3.300000e+00 -1.334938e-08
-3.290000e+00 -1.394736e-08
-3.280000e+00 -1.451382e-08
-3.270000e+00 -1.504524e-08
-3.260000e+00 -1.553836e-08
-3.250000e+00 -1.599028e-08
-3.240000e+00 -1.639850e-08
-3.230000e+00 -1.676091e-08
-3.220000e+00 -1.707584e-08
-3.210000e+00 -1.734208e-08
-3.200000e+00 -1.755890e-08
-3.190001e+00 -1.772607e-08
-3.180000e+00 -1.784385e-08
-3.170000e+00 -1.791302e-08
-3.160000e+00 -1.793487e-08
-3.150001e+00 -1.791120e-08
-3.140000e+00 -1.784429e-08
-3.130000e+00 -1.773692e-08
-3.120000e+00 -1.759233e-08
-3.110001e+00 -1.741421e-08
-3.100000e+00 -1.720662e-08
-3.090000e+00 -1.697404e-08
-3.080000e+00 -1.672126e-08
-3.070001e+00 -1.645338e-08
-3.060000e+00 -1.617571e-08
-3.050000e+00 -1.589381e-08
-3.040000e+00 -1.561332e-08
-3.030000e+00 -1.534002e-08
-3.020000e+00 -1.507969e-08
-3.010000e+00 -1.483807e-08
-3.000000e+00 -1.462083e-08
-2.990000e+00 -1.443347e-08
-2.980000e+00 -1.428129e-08
-2.970000e+00 -1.416931e-08
-2.960000e+00 -1.410224e-08
-2.950000e+00 -1.408439e-08
-2.940001e+00 -1.411965e-08
-2.930000e+00 -1.421144e-08
-2.920000e+00 -1.436265e-08
-2.910000e+00 -1.457564e-08
-2.900001e+00 -1.485216e-08
-2.890000e+00 -1.519338e-08
-2.880000e+00 -1.559983e-08
-2.870000e+00 -1.607141e-08
-2.860001e+00 -1.660740e-08
-2.850000e+00 -1.720643e-08
-2.840000e+00 -1.786654e-08
-2.830000e+00 -1.858515e-08
-2.820001e+00 -1.935912e-08
-2.810000e+00 -2.018480e-08
-2.800000e+00 -2.105801e-08
-2.790000e+00 -2.197417e-08
-2.780000e+00 -2.292829e-08
-2.770000e+00 -2.391505e-08
-2.760000e+00 -2.492891e-08
-2.750000e+00 -2.596408e-08
-2.740000e+00 -2.701468e-08
-2.730000e+00 -2.807481e-08
-2.720000e+00 -2.913855e-08
-2.710000e+00 -3.020012e-08
-2.700000e+00 -3.125389e-08
-2.690001e+00 -3.229452e-08
-2.680000e+00 -3.331697e-08
-2.670000e+00 -3.431658e-08
-2.660000e+00 -3.528916e-08
-2.650001e+00 -3.623101e-08
-2.640000e+00 -3.713900e-08
-2.630000e+00 -3.801059e-08
-2.620000e+00 -3.884387e-08
-2.610001e+00 -3.963758e-08
-2.600000e+00 -4.039116e-08
-2.590000e+00 -4.110470e-08
-2.580000e+00 -4.177901e-08
-2.570001e+00 -4.241552e-08
-2.560000e+00 -4.301636e-08
-2.550000e+00 -4.358426e-08
-2.540000e+00 -4.412253e-08
-2.530001e+00 -4.463501e-08
-2.520000e+00 -4.512605e-08
-2.510000e+00 -4.560040e-08
-2.500000e+00 -4.606318e-08
-2.490000e+00 -4.651979e-08
-2.480000e+00 -4.697585e-08
-2.470000e+00 -4.743709e-08
-2.460000e+00 -4.790932e-08
-2.450000e+00 -4.839831e-08
-2.440001e+00 -4.890973e-08
-2.430000e+00 -4.944905e-08
-2.420000e+00 -5.002150e-08
-2.410000e+00 -5.063198e-08
-2.400001e+00 -5.128497e-08
-2.390000e+00 -5.198453e-08
-2.380000e+00 -5.273420e-08
-2.370000e+00 -5.353699e-08
-2.360001e+00 -5.439532e-08
-2.350000e+00 -5.531098e-08
-2.340000e+00 -5.628518e-08
-2.330000e+00 -5.731848e-08
-2.320001e+00 -5.841083e-08
-2.310000e+00 -5.956155e-08
-2.300000e+00 -6.076942e-08
-2.290000e+00 -6.203261e-08
-2.280001e+00 -6.334885e-08
-2.270000e+00 -6.471535e-08
-2.260000e+00 -6.612898e-08
-2.250000e+00 -6.758622e-08
-2.240000e+00 -6.908333e-08
-2.230000e+00 -7.061634e-08
-2.220000e+00 -7.218117e-08
-2.210000e+00 -7.377370e-08
-2.200000e+00 -7.538983e-08
-2.190001e+00 -7.702562e-08
-2.180000e+00 -7.867727e-08
-2.170000e+00 -8.034122e-08
-2.160000e+00 -8.201427e-08
-2.150001e+00 -8.369358e-08
-2.140000e+00 -8.537672e-08
-2.130000e+00 -8.706177e-08
-2.120000e+00 -8.874729e-08
-2.110001e+00 -9.043239e-08
-2.100000e+00 -9.211671e-08
-2.090000e+00 -9.380048e-08
-2.080000e+00 -9.548444e-08
-2.070001e+00 -9.716990e-08
-2.060000e+00 -9.885868e-08
-2.050000e+00 -1.005531e-07
-2.040000e+00 -1.022559e-07
-2.030001e+00 -1.039701e-07
-2.020000e+00 -1.056993e-07
-2.010000e+00 -1.074473e-07
-2.000000e+00 -1.092178e-07
-1.990000e+00 -1.110152e-07
-1.980000e+00 -1.128434e-07
-1.970000e+00 -1.147066e-07
-1.960000e+00 -1.166089e-07
-1.950000e+00 -1.185542e-07
-1.940001e+00 -1.205462e-07
-1.930000e+00 -1.225882e-07
-1.920000e+00 -1.246834e-07
-1.910000e+00 -1.268343e-07
-1.900001e+00 -1.290433e-07
-1.890000e+00 -1.313120e-07
-1.880000e+00 -1.336418e-07
-1.870000e+00 -1.360334e-07
-1.860001e+00 -1.384871e-07
-1.850000e+00 -1.410027e-07
-1.840000e+00 -1.435793e-07
-1.830000e+00 -1.462159e-07
-1.820001e+00 -1.489109e-07
-1.810000e+00 -1.516622e-07
-1.800000e+00 -1.544677e-07
-1.790000e+00 -1.573246e-07
-1.780001e+00 -1.602304e-07
-1.770000e+00 -1.631822e-07
-1.760000e+00 -1.661770e-07
-1.750000e+00 -1.692120e-07
-1.740000e+00 -1.722845e-07
-1.730000e+00 -1.753920e-07
-1.720000e+00 -1.785322e-07
-1.710000e+00 -1.817031e-07
-1.700000e+00 -1.849031e-07
-1.690001e+00 -1.881314e-07
-1.680000e+00 -1.913871e-07
-1.670000e+00 -1.946704e-07
-1.660000e+00 -1.979818e-07
-1.650001e+00 -2.013225e-07
-1.640000e+00 -2.046942e-07
-1.630000e+00 -2.080993e-07
-1.620000e+00 -2.115407e-07
-1.610001e+00 -2.150219e-07
-1.600000e+00 -2.185471e-07
-1.590000e+00 -2.221205e-07
-1.580000e+00 -2.257472e-07
-1.570001e+00 -2.294323e-07
-1.560000e+00 -2.331813e-07
-1.550000e+00 -2.369998e-07
-1.540000e+00 -2.408935e-07
-1.530001e+00 -2.448680e-07
-1.520000e+00 -2.489290e-07
-1.510000e+00 -2.530818e-07
-1.500000e+00 -2.573314e-07
-1.490000e+00 -2.616824e-07
-1.480000e+00 -2.661391e-07
-1.470000e+00 -2.707050e-07
-1.460000e+00 -2.753830e-07
-1.450000e+00 -2.801756e-07
-1.440001e+00 -2.850841e-07
-1.430000e+00 -2.901094e-07
-1.420000e+00 -2.952515e-07
-1.410000e+00 -3.005094e-07
-1.400001e+00 -3.058817e-07
-1.390000e+00 -3.113659e-07
-1.380000e+00 -3.169590e-07
-1.370000e+00 -3.226571e-07
-1.360001e+00 -3.284558e-07
-1.350000e+00 -3.343502e-07
-1.340000e+00 -3.403349e-07
-1.330000e+00 -3.464043e-07
-1.320001e+00 -3.525523e-07
-1.310000e+00 -3.587728e-07
-1.300000e+00 -3.650599e-07
-1.290000e+00 -3.714074e-07
-1.280001e+00 -3.778098e-07
-1.270000e+00 -3.842617e-07
-1.260000e+00 -3.907582e-07
-1.250000e+00 -3.972952e-07
-1.240000e+00 -4.038691e-07
-1.230000e+00 -4.104770e-07
-1.220000e+00 -4.171172e-07
-1.210000e+00 -4.237887e-07
-1.200000e+00 -4.304916e-07
-1.190001e+00 -4.372271e-07
-1.180000e+00 -4.439973e-07
-1.170000e+00 -4.508054e-07