-1.200000e+01 0.000000e+00
-1.199000e+01 0.000000e+00
-1.198000e+01 0.000000e+00
-1.197000e+01 0.000000e+00
-1.196000e+01 1.591289e-29
-1.195000e+01 -4.213680e-26
-1.194000e+01 -4.546830e-25
-1.193000e+01 -2.662212e-24
-1.192000e+01 -1.120837e-23
-1.191000e+01 -3.795075e-23
-1.190000e+01 -1.096628e-22
-1.189000e+01 -2.804178e-22
-1.188000e+01 -6.500228e-22
-1.187000e+01 -1.389309e-21
-1.186000e+01 -2.772167e-21
-1.185000e+01 -5.212765e-21
-1.184000e+01 -9.304453e-21
-1.183000e+01 -1.585434e-20
-1.182000e+01 -2.590481e-20
-1.181000e+01 -4.073021e-20
-1.180000e+01 -6.179422e-20
-1.179000e+01 -9.065111e-20
-1.178000e+01 -1.287727e-19
-1.177000e+01 -1.772833e-19
-1.176000e+01 -2.365856e-19
-1.175000e+01 -3.058669e-19
-1.174000e+01 -3.824788e-19
-1.173000e+01 -4.611948e-19
-1.172000e+01 -5.333628e-19
-1.171000e+01 -5.859809e-19
-1.170000e+01 -6.007450e-19
-1.169000e+01 -5.531318e-19
-1.168000e+01 -4.115994e-19
-1.167000e+01 -1.370049e-19
-1.166000e+01 3.176484e-19
-1.165000e+01 1.007010e-18
-1.164000e+01 1.992602e-18
-1.163000e+01 3.341328e-18
-1.162000e+01 5.123170e-18
-1.161000e+01 7.407970e-18
-1.160000e+01 1.026124e-17
-1.159000e+01 1.373899e-17
-1.158000e+01 1.788162e-17
-1.157000e+01 2.270695e-17
-1.156000e+01 2.820263e-17
-1.155000e+01 3.431803e-17
-1.154000e+01 4.095625e-17
-1.153000e+01 4.796623e-17
-1.152000e+01 5.513588e-17
-1.151000e+01 6.218645e-17
-1.150000e+01 6.876892e-17
-1.149000e+01 7.446296e-17
-1.148000e+01 7.877893e-17
-1.147000e+01 8.116386e-17
-1.146000e+01 8.101138e-17
-1.145000e+01 7.767649e-17
-1.144000e+01 7.049504e-17
-1.143000e+01 5.880819e-17
-1.142000e+01 4.199163e-17
-1.141000e+01 1.948902e-17
-1.140000e+01 -9.150744e-18
-1.139000e+01 -4.423371e-17
-1.138000e+01 -8.587949e-17
-1.137000e+01 -1.339800e-16
-1.136000e+01 -1.881601e-16
-1.135000e+01 -2.477416e-16
-1.134000e+01 -3.117138e-16
-1.133000e+01 -3.787118e-16
-1.132000e+01 -4.470049e-16
-1.131000e+01 -5.144976e-16
-1.130000e+01 -5.787451e-16
-1.129000e+01 -6.369846e-16
-1.128000e+01 -6.861833e-16
-1.127000e+01 -7.231051e-16
-1.126000e+01 -7.443940e-16
-1.125000e+01 -7.466760e-16
-1.124000e+01 -7.266754e-16
-1.123000e+01 -6.813464e-16
-1.122000e+01 -6.080134e-16
-1.121000e+01 -5.045200e-16
-1.120000e+01 -3.693781e-16
-1.119000e+01 -2.019159e-16
-1.118000e+01 -2.415751e-18
-1.117000e+01 2.277632e-16
-1.116000e+01 4.860830e-16
-1.115000e+01 7.687535e-16
-1.114000e+01 1.070693e-15
-1.113000e+01 1.385527e-15
-1.112000e+01 1.705635e-15
-1.111000e+01 2.022239e-15
-1.110000e+01 2.325552e-15
-1.109000e+01 2.604964e-15
-1.108000e+01 2.849295e-15
-1.107000e+01 3.047081e-15
-1.106000e+01 3.186913e-15
-1.105000e+01 3.257803e-15
-1.104000e+01 3.249589e-15
-1.103000e+01 3.153342e-15
-1.102000e+01 2.961789e-15
-1.101000e+01 2.669722e-15
-1.100000e+01 2.274384e-15
-1.099000e+01 1.775807e-15
-1.098000e+01 1.177112e-15
-1.097000e+01 4.847198e-16
-1.096000e+01 -2.915085e-16
-1.095000e+01 -1.138238e-15
-1.094000e+01 -2.038729e-15
-1.093000e+01 -2.973023e-15
-1.092000e+01 -3.918248e-15
-1.091000e+01 -4.849048e-15
-1.090000e+01 -5.738128e-15
-1.089000e+01 -6.556910e-15
-1.088000e+01 -7.276293e-15
-1.087000e+01 -7.867491e-15
-1.086000e+01 -8.302939e-15
-1.085000e+01 -8.557239e-15
-1.084000e+01 -8.608115e-15
-1.083000e+01 -8.437357e-15
-1.082000e+01 -8.031722e-15
-1.081000e+01 -7.383735e-15
-1.080000e+01 -6.492403e-15
-1.079000e+01 -5.363761e-15
-1.078000e+01 -4.011263e-15
-1.077000e+01 -2.455961e-15
-1.076000e+01 -7.264741e-16
-1.075000e+01 1.141291e-15
-1.074000e+01 3.104653e-15
-1.073000e+01 5.114927e-15
-1.072000e+01 7.118434e-15
-1.071000e+01 9.057734e-15
-1.070000e+01 1.087308e-14
-1.069000e+01 1.250404e-14
-1.068000e+01 1.389125e-14
-1.067000e+01 1.497828e-14
-1.066000e+01 1.571354e-14
-1.065000e+01 1.605216e-14
-1.064000e+01 1.595780e-14
-1.063000e+01 1.540435e-14
-1.062000e+01 1.437742e-14
-1.061000e+01 1.287559e-14
-1.060000e+01 1.091130e-14
-1.059000e+01 8.511509e-15
-1.058000e+01 5.717795e-15
-1.057000e+01 2.586164e-15
-1.056000e+01 -8.136657e-16
-1.055000e+01 -4.399404e-15
-1.054000e+01 -8.077793e-15
-1.053000e+01 -1.174663e-14
-1.052000e+01 -1.529720e-14
-1.051000e+01 -1.861705e-14
-1.050000e+01 -2.159302e-14
-1.049000e+01 -2.411455e-14
-1.048000e+01 -2.607705e-14
-1.047000e+01 -2.738537e-14
-1.046000e+01 -2.795710e-14
-1.045000e+01 -2.772584e-14
-1.044000e+01 -2.664409e-14
-1.043000e+01 -2.468577e-14
-1.042000e+01 -2.184838e-14
-1.041000e+01 -1.815443e-14
-1.040000e+01 -1.365240e-14
-1.039000e+01 -8.416907e-15
-1.038000e+01 -2.548149e-15
-1.037000e+01 3.829377e-15
-1.036000e+01 1.056896e-14
-1.035000e+01 1.750448e-14
-1.034000e+01 2.445396e-14
-1.033000e+01 3.122368e-14
-1.032000e+01 3.761295e-14
-1.031000e+01 4.341925e-14
-1.030000e+01 4.844373e-14
-1.029000e+01 5.249691e-14
-1.028000e+01 5.540439e-14
-1.027000e+01 5.701245e-14
-1.026000e+01 5.719339e-14
-1.025000e+01 5.585035e-14
-1.024000e+01 5.292168e-14
-1.023000e+01 4.838437e-14
-1.022000e+01 4.225674e-14
-1.021000e+01 3.460009e-14
-1.020000e+01 2.551931e-14
-1.019000e+01 1.516226e-14
-1.018000e+01 3.718051e-15
-1.017000e+01 -8.585867e-15
-1.016000e+01 -2.148780e-14
-1.015000e+01 -3.469699e-14
-1.014000e+01 -4.789971e-14
-1.013000e+01 -6.076640e-14
-1.012000e+01 -7.295934e-14
-1.011000e+01 -8.414095e-14
-1.010000e+01 -9.398246e-14
-1.009000e+01 -1.021726e-13
-1.008000e+01 -1.084265e-13
-1.007000e+01 -1.124934e-13
-1.006000e+01 -1.141653e-13
-1.005000e+01 -1.132833e-13
-1.004000e+01 -1.097436e-13
-1.003000e+01 -1.035027e-13
-1.002000e+01 -9.458061e-14
-1.001000e+01 -8.306287e-14
-1.000000e+01 -6.910092e-14
-9.990000e+00 -5.291090e-14
-9.980000e+00 -3.477080e-14
-9.970000e+00 -1.501586e-14
-9.960000e+00 5.967489e-15
-9.950000e+00 2.774922e-14
-9.940001e+00 4.986457e-14
-9.930000e+00 7.182408e-14
-9.920000e+00 9.312451e-14
-9.910000e+00 1.132604e-13
-9.900000e+00 1.317363e-13
-9.890000e+00 1.480782e-13
-9.880000e+00 1.618463e-13
-9.870000e+00 1.726459e-13
-9.860001e+00 1.801381e-13
-9.850000e+00 1.840494e-13
-9.840000e+00 1.841800e-13
-9.830000e+00 1.804104e-13
-9.820000e+00 1.727065e-13
-9.809999e+00 1.611225e-13
-9.800000e+00 1.458019e-13
-9.790000e+00 1.269765e-13
-9.780000e+00 1.049633e-13
-9.770000e+00 8.015900e-14
-9.760000e+00 5.303277e-14
-9.750000e+00 2.411736e-14
-9.740000e+00 -6.001949e-15
-9.730000e+00 -3.669944e-14
-9.720000e+00 -6.732248e-14
-9.710000e+00 -9.720579e-14
-9.700000e+00 -1.256864e-13
-9.690001e+00 -1.521188e-13
-9.680000e+00 -1.758896e-13
-9.670000e+00 -1.964327e-13
-9.660000e+00 -2.132424e-13
-9.650000e+00 -2.258861e-13
-9.640000e+00 -2.340157e-13
-9.630000e+00 -2.373763e-13
-9.620000e+00 -2.358140e-13
-9.610001e+00 -2.292811e-13
-9.600000e+00 -2.178385e-13
-9.590000e+00 -2.016564e-13
-9.580000e+00 -1.810119e-13
-9.570000e+00 -1.562849e-13
-9.559999e+00 -1.279504e-13
-9.550000e+00 -9.657018e-14
-9.540000e+00 -6.278054e-14
-9.530000e+00 -2.727983e-14
-9.520000e+00 9.186610e-15
-9.510000e+00 4.584238e-14
-9.500000e+00 8.189687e-14
-9.490000e+00 1.165628e-13
-9.480000e+00 1.490735e-13
-9.470000e+00 1.787006e-13
-9.460000e+00 2.047705e-13
-9.450000e+00 2.266798e-13
-9.440001e+00 2.439098e-13
-9.430000e+00 2.560387e-13
-9.420000e+00 2.627523e-13
-9.410000e+00 2.638518e-13
-9.400000e+00 2.592595e-13
-9.390000e+00 2.490217e-13
-9.380000e+00 2.333091e-13
-9.370000e+00 2.124137e-13
-9.360001e+00 1.867441e-13
-9.350000e+00 1.568167e-13
-9.340000e+00 1.232458e-13
-9.330000e+00 8.673048e-14
-9.320000e+00 4.803987e-14
-9.309999e+00 7.996585e-15
-9.300000e+00 -3.254108e-14
-9.290000e+00 -7.269794e-14
-9.280000e+00 -1.116012e-13
-9.270000e+00 -1.483999e-13
-9.260000e+00 -1.822836e-13
-9.250000e+00 -2.125011e-13
-9.240000e+00 -2.383770e-13
-9.230000e+00 -2.593270e-13
-9.220000e+00 -2.748716e-13
-9.210000e+00 -2.846469e-13
-9.200000e+00 -2.884131e-13
-9.190001e+00 -2.860604e-13
-9.180000e+00 -2.776115e-13
-9.170000e+00 -2.632217e-13
-9.160000e+00 -2.431753e-13
-9.150000e+00 -2.178800e-13
-9.140000e+00 -1.878575e-13
-9.130000e+00 -1.537321e-13
-9.120000e+00 -1.162170e-13
-9.110001e+00 -7.609814e-14
-9.100000e+00 -3.421689e-14
-9.090000e+00 8.548772e-15
-9.080000e+00 5.130377e-14
-9.070000e+00 9.315577e-14
-9.060000e+00 1.332349e-13
-9.050000e+00 1.707129e-13
-9.040000e+00 2.048212e-13
-9.030000e+00 2.348671e-13
-9.020000e+00 2.602491e-13
-9.010000e+00 2.804689e-13
-9.000000e+00 2.951419e-13
-8.990000e+00 3.040037e-13
-8.980000e+00 3.069156e-13
-8.970000e+00 3.038654e-13
-8.960000e+00 2.949664e-13
-8.950000e+00 2.804528e-13
-8.940001e+00 2.606732e-13
-8.930000e+00 2.360809e-13
-8.920000e+00 2.072220e-13
-8.910000e+00 1.747221e-13
-8.900000e+00 1.392711e-13
-8.890000e+00 1.016066e-13
-8.880000e+00 6.249722e-14
-8.870000e+00 2.272510e-14
-8.860001e+00 -1.693128e-14
-8.850000e+00 -5.571372e-14
-8.840000e+00 -9.289995e-14
-8.830000e+00 -1.278180e-13
-8.820000e+00 -1.598589e-13
-8.810000e+00 -1.884877e-13
-8.800000e+00 -2.132519e-13
-8.790000e+00 -2.337884e-13
-8.780000e+00 -2.498276e-13
-8.770000e+00 -2.611955e-13
-8.760000e+00 -2.678131e-13
-8.750000e+00 -2.696945e-13
-8.740000e+00 -2.669423e-13
-8.730000e+00 -2.597420e-13
-8.720000e+00 -2.483542e-13
-8.710000e+00 -2.331058e-13
-8.700000e+00 -2.143815e-13
-8.690001e+00 -1.926127e-13
-8.680000e+00 -1.682683e-13
-8.670000e+00 -1.418439e-13
-8.660000e+00 -1.138524e-13
-8.650000e+00 -8.481467e-14
-8.640000e+00 -5.525138e-14
-8.630000e+00 -2.567534e-14
-8.620000e+00 3.414829e-15
-8.610001e+00 3.154000e-14
-8.600000e+00 5.824484e-14
-8.590000e+00 8.310095e-14
-8.580000e+00 1.057092e-13
-8.570000e+00 1.257013e-13
-8.560000e+00 1.427403e-13
-8.550000e+00 1.565214e-13
-8.540000e+00 1.667719e-13
-8.530000e+00 1.732510e-13
-8.520000e+00 1.757504e-13
-8.510000e+00 1.740944e-13
-8.500000e+00 1.681411e-13
-8.490000e+00 1.577835e-13
-8.480000e+00 1.429516e-13
-8.470000e+00 1.236148e-13
-8.460000e+00 9.978512e-14
-8.450000e+00 7.152033e-14
-8.440001e+00 3.892806e-14
-8.430000e+00 2.169281e-15
-8.420000e+00 -3.853793e-14
-8.410000e+00 -8.291526e-14
-8.400000e+00 -1.306217e-13
-8.390000e+00 -1.812519e-13
-8.380000e+00 -2.343363e-13
-8.370000e+00 -2.893419e-13
-8.360001e+00 -3.456762e-13
-8.350000e+00 -4.026912e-13
-8.340000e+00 -4.596914e-13
-8.330000e+00 -5.159425e-13
-8.320000e+00 -5.706831e-13
-8.310000e+00 -6.231374e-13
-8.300000e+00 -6.725310e-13
-8.290000e+00 -7.181069e-13
-8.280000e+00 -7.591438e-13
-8.270000e+00 -7.949742e-13
-8.260000e+00 -8.250030e-13
-8.250000e+00 -8.487267e-13
-8.240000e+00 -8.657502e-13
-8.230000e+00 -8.758031e-13
-8.220000e+00 -8.787537e-13
-8.210000e+00 -8.746205e-13
-8.200000e+00 -8.635809e-13
-8.190001e+00 -8.459747e-13
-8.180000e+00 -8.223059e-13
-8.170000e+00 -7.932391e-13
-8.160000e+00 -7.595911e-13
-8.150000e+00 -7.223190e-13
-8.140000e+00 -6.825036e-13
-8.130000e+00 -6.413288e-13
-8.120000e+00 -6.000572e-13
-8.110001e+00 -5.600028e-13
-8.100000e+00 -5.225010e-13
-8.090000e+00 -4.888767e-13
-8.080000e+00 -4.604119e-13
-8.070000e+00 -4.383126e-13
-8.060000e+00 -4.236769e-13
-8.050000e+00 -4.174646e-13
-8.040000e+00 -4.204700e-13
-8.030000e+00 -4.332974e-13
-8.020000e+00 -4.563417e-13
-8.010000e+00 -4.897734e-13
-8.000000e+00 -5.335295e-13
-7.990000e+00 -5.873105e-13
-7.980000e+00 -6.505827e-13
-7.970000e+00 -7.225885e-13
-7.960000e+00 -8.023608e-13
-7.950000e+00 -8.887446e-13
-7.940000e+00 -9.804240e-13
-7.930000e+00 -1.075953e-12
-7.920000e+00 -1.173790e-12
-7.910000e+00 -1.272339e-12
-7.900000e+00 -1.369987e-12
-7.890000e+00 -1.465144e-12
-7.880000e+00 -1.556288e-12
-7.870000e+00 -1.642001e-12
-7.860000e+00 -1.721005e-12
-7.850000e+00 -1.792199e-12
-7.840000e+00 -1.854684e-12
-7.830000e+00 -1.907785e-12
-7.820000e+00 -1.951072e-12
-7.810000e+00 -1.984367e-12
-7.800000e+00 -2.007749e-12
-7.790000e+00 -2.021550e-12
-7.780000e+00 -2.026341e-12
-7.770000e+00 -2.022923e-12
-7.760000e+00 -2.012294e-12
-7.750000e+00 -1.995628e-12
-7.740000e+00 -1.974240e-12
-7.730000e+00 -1.949546e-12
-7.720000e+00 -1.923032e-12
-7.710000e+00 -1.896206e-12
-7.700000e+00 -1.870563e-12
-7.690000e+00 -1.847544e-12
-7.680000e+00 -1.828503e-12
-7.670000e+00 -1.814671e-12
-7.660000e+00 -1.807128e-12
-7.650000e+00 -1.806781e-12
-7.640000e+00 -1.814345e-12
-7.630000e+00 -1.830333e-12
-7.620000e+00 -1.855050e-12
-7.610000e+00 -1.888593e-12
-7.600000e+00 -1.930863e-12
-7.590000e+00 -1.981573e-12
-7.580000e+00 -2.040269e-12
-7.570000e+00 -2.106354e-12
-7.560000e+00 -2.179110e-12
-7.550000e+00 -2.257732e-12
-7.540000e+00 -2.341356e-12
-7.530000e+00 -2.429089e-12
-7.520000e+00 -2.520039e-12
-7.510000e+00 -2.613345e-12
-7.500000e+00 -2.708201e-12
-7.490000e+00 -2.803878e-12
-7.480000e+00 -2.899744e-12
-7.470000e+00 -2.995274e-12
-7.460000e+00 -3.090059e-12
-7.450000e+00 -3.183812e-12
-7.440000e+00 -3.276363e-12
-7.430000e+00 -3.367652e-12
-7.420000e+00 -3.457719e-12
-7.410000e+00 -3.546692e-12
-7.400000e+00 -3.634763e-12
-7.390000e+00 -3.722173e-12
-7.380000e+00 -3.809190e-12
-7.370000e+00 -3.896088e-12
-7.360000e+00 -3.983125e-12
-7.350000e+00 -4.070527e-12
-7.340000e+00 -4.158471e-12
-7.330000e+00 -4.247071e-12
-7.320000e+00 -4.336372e-12
-7.310000e+00 -4.426341e-12
-7.300000e+00 -4.516874e-12
-7.290000e+00 -4.607793e-12
-7.280000e+00 -4.698862e-12
-7.270000e+00 -4.789796e-12
-7.260000e+00 -4.880279e-12
-7.250000e+00 -4.969984e-12
-7.240000e+00 -5.058595e-12
-7.230000e+00 -5.145831e-12
-7.220000e+00 -5.231463e-12
-7.210000e+00 -5.315347e-12
-7.200000e+00 -5.397432e-12
-7.190000e+00 -5.477785e-12
-7.180000e+00 -5.556602e-12
-7.170000e+00 -5.634217e-12
-7.160000e+00 -5.711102e-12
-7.150000e+00 -5.787871e-12
-7.140000e+00 -5.865268e-12
-7.130000e+00 -5.944153e-12
-7.120000e+00 -6.025485e-12
-7.110000e+00 -6.110300e-12
-7.100000e+00 -6.199674e-12
-7.090000e+00 -6.294704e-12
-7.080000e+00 -6.396463e-12
-7.070000e+00 -6.505970e-12
-7.060000e+00 -6.624156e-12
-7.050000e+00 -6.751826e-12
-7.040000e+00 -6.889632e-12
-7.030000e+00 -7.038043e-12
-7.020000e+00 -7.197326e-12
-7.010000e+00 -7.367524e-12
-7.000000e+00 -7.548453e-12
-6.990000e+00 -7.739695e-12
-6.980000e+00 -7.940606e-12
-6.970000e+00 -8.150322e-12
-6.960000e+00 -8.367795e-12
-6.950000e+00 -8.591800e-12
-6.940000e+00 -8.820986e-12
-6.930000e+00 -9.053899e-12
-6.920000e+00 -9.289040e-12
-6.910000e+00 -9.524897e-12
-6.900000e+00 -9.760001e-12
-6.890000e+00 -9.992965e-12
-6.880000e+00 -1.022253e-11
-6.870000e+00 -1.044762e-11
-6.860000e+00 -1.066735e-11
-6.850000e+00 -1.088107e-11
-6.840000e+00 -1.108841e-11
-6.830000e+00 -1.128926e-11
-6.820000e+00 -1.148378e-11
-6.810000e+00 -1.167245e-11
-6.800000e+00 -1.185596e-11
-6.790000e+00 -1.203530e-11
-6.780000e+00 -1.221164e-11
-6.770000e+00 -1.238636e-11
-6.760000e+00 -1.256097e-11
-6.750000e+00 -1.273709e-11
-6.740000e+00 -1.291637e-11
-6.730000e+00 -1.310049e-11
-6.720000e+00 -1.329104e-11
-6.710000e+00 -1.348956e-11
-6.700000e+00 -1.369740e-11
-6.690000e+00 -1.391576e-11
-6.680000e+00 -1.414563e-11
-6.670000e+00 -1.438773e-11
-6.660000e+00 -1.464256e-11
-6.650000e+00 -1.491034e-11
-6.640000e+00 -1.519102e-11
-6.630000e+00 -1.548431e-11
-6.620000e+00 -1.578969e-11
-6.610000e+00 -1.610643e-11
-6.600000e+00 -1.643362e-11
-6.590000e+00 -1.677023e-11
-6.580000e+00 -1.711513e-11
-6.570000e+00 -1.746716e-11
-6.560000e+00 -1.782515e-11
-6.550000e+00 -1.818800e-11
-6.540000e+00 -1.855468e-11
-6.530000e+00 -1.892431e-11
-6.520000e+00 -1.929619e-11
-6.510000e+00 -1.966978e-11
-6.500000e+00 -2.004477e-11
-6.490000e+00 -2.042110e-11
-6.480000e+00 -2.079891e-11
-6.470000e+00 -2.117856e-11
-6.460000e+00 -2.156062e-11
-6.450000e+00 -2.194584e-11
-6.440000e+00 -2.233514e-11
-6.430000e+00 -2.272951e-11
-6.420000e+00 -2.313006e-11
-6.410000e+00 -2.353790e-11
-6.400000e+00 -2.395414e-11
-6.390000e+00 -2.437983e-11
-6.380000e+00 -2.481591e-11
-6.370000e+00 -2.526319e-11
-6.360000e+00 -2.572231e-11
-6.350000e+00 -2.619372e-11
-6.340000e+00 -2.667765e-11
-6.330000e+00 -2.717411e-11
-6.320000e+00 -2.768290e-11
-6.310000e+00 -2.820360e-11
-6.300000e+00 -2.873561e-11
-6.290000e+00 -2.927815e-11
-6.280000e+00 -2.983032e-11
-6.270000e+00 -3.039112e-11
-6.260000e+00 -3.095953e-11
-6.250000e+00 -3.153449e-11
-6.240000e+00 -3.211501e-11
-6.230000e+00 -3.270020e-11
-6.220000e+00 -3.328929e-11
-6.210000e+00 -3.388171e-11
-6.200000e+00 -3.447708e-11
-6.190000e+00 -3.507528e-11
-6.180000e+00 -3.567644e-11
-6.170000e+00 -3.628093e-11
-6.160000e+00 -3.688942e-11
-6.150000e+00 -3.750279e-11
-6.140000e+00 -3.812216e-11
-6.130000e+00 -3.874886e-11
-6.120000e+00 -3.938436e-11
-6.110000e+00 -4.003024e-11
-6.100000e+00 -4.068814e-11
-6.090000e+00 -4.135972e-11
-6.080000e+00 -4.204656e-11
-6.070000e+00 -4.275017e-11
-6.060000e+00 -4.347189e-11
-6.050000e+00 -4.421284e-11
-6.040000e+00 -4.497393e-11
-6.030000e+00 -4.575578e-11
-6.020000e+00 -4.655871e-11
-6.010000e+00 -4.738275e-11
-6.000000e+00 -4.822761e-11
-5.990000e+00 -4.909271e-11
-5.980000e+00 -4.997721e-11
-5.970000e+00 -5.088002e-11
-5.960000e+00 -5.179985e-11
-5.950000e+00 -5.273528e-11
-5.940000e+00 -5.368479e-11
-5.930000e+00 -5.464683e-11
-5.920000e+00 -5.561988e-11
-5.910000e+00 -5.660254e-11
-5.900000e+00 -5.759353e-11
-5.890000e+00 -5.859182e-11
-5.880000e+00 -5.959661e-11
-5.870000e+00 -6.060740e-11
-5.860000e+00 -6.162405e-11
-5.850000e+00 -6.264673e-11
-5.840000e+00 -6.367596e-11
-5.830000e+00 -6.471262e-11
-5.820000e+00 -6.575790e-11
-5.810000e+00 -6.681330e-11
-5.800000e+00 -6.788055e-11
-5.790000e+00 -6.896157e-11
-5.780000e+00 -7.005845e-11
-5.770000e+00 -7.117332e-11
-5.760000e+00 -7.230833e-11
-5.750000e+00 -7.346556e-11
-5.740000e+00 -7.464698e-11
-5.730000e+00 -7.585433e-11
-5.720000e+00 -7.708914e-11
-5.710000e+00 -7.835264e-11
-5.700000e+00 -7.964569e-11
-5.690000e+00 -8.096885e-11
-5.680000e+00 -8.232229e-11
-5.670000e+00 -8.370581e-11
-5.660000e+00 -8.511890e-11
-5.650000e+00 -8.656068e-11
-5.640000e+00 -8.803005e-11
-5.630000e+00 -8.952564e-11
-5.620000e+00 -9.104596e-11
-5.610000e+00 -9.258938e-11
-5.600000e+00 -9.415428e-11
-5.590000e+00 -9.573908e-11
-5.580000e+00 -9.734231e-11
-5.570000e+00 -9.896269e-11
-5.560000e+00 -1.005992e-10
-5.550000e+00 -1.022511e-10
-5.540000e+00 -1.039180e-10
-5.530000e+00 -1.055999e-10
-5.520000e+00 -1.072972e-10
-5.510000e+00 -1.090105e-10
-5.500000e+00 -1.107410e-10
-5.490000e+00 -1.124901e-10
-5.480000e+00 -1.142597e-10
-5.470000e+00 -1.160515e-10
-5.460000e+00 -1.178679e-10
-5.450000e+00 -1.197111e-10
-5.440000e+00 -1.215833e-10
-5.430000e+00 -1.234869e-10
-5.420000e+00 -1.254239e-10
-5.410000e+00 -1.273962e-10
-5.400000e+00 -1.294055e-10
-5.390000e+00 -1.314532e-10
-5.380000e+00 -1.335401e-10
-5.370000e+00 -1.356669e-10
-5.360000e+00 -1.378336e-10
-5.350000e+00 -1.400400e-10
-5.340000e+00 -1.422854e-10
-5.330000e+00 -1.445688e-10
-5.320000e+00 -1.468888e-10
-5.310000e+00 -1.492436e-10
-5.300000e+00 -1.516316e-10
-5.290000e+00 -1.540507e-10
-5.280000e+00 -1.564990e-10
-5.270000e+00 -1.589746e-10
-5.260000e+00 -1.614757e-10
-5.250000e+00 -1.640008e-10
-5.240000e+00 -1.665488e-10
-5.230000e+00 -1.691188e-10
-5.220000e+00 -1.717106e-10
-5.210000e+00 -1.743242e-10
-5.200000e+00 -1.769605e-10
-5.190000e+00 -1.796205e-10
-5.180000e+00 -1.823059e-10
-5.170000e+00 -1.850191e-10
-5.160000e+00 -1.877625e-10
-5.150000e+00 -1.905393e-10
-5.140000e+00 -1.933526e-10
-5.130000e+00 -1.962061e-10
-5.120000e+00 -1.991033e-10
-5.110000e+00 -2.020478e-10
-5.100000e+00 -2.050432e-10
-5.090000e+00 -2.080926e-10
-5.080000e+00 -2.111992e-10
-5.070000e+00 -2.143653e-10
-5.060000e+00 -2.175933e-10
-5.050000e+00 -2.208846e-10
-5.040000e+00 -2.242402e-10
-5.030000e+00 -2.276606e-10
-5.020000e+00 -2.311454e-10
-5.010000e+00 -2.346939e-10
-5.000000e+00 -2.383047e-10
-4.990000e+00 -2.419759e-10
-4.980000e+00 -2.457053e-10
-4.970000e+00 -2.494904e-10
-4.960000e+00 -2.533281e-10
-4.950000e+00 -2.572156e-10
-4.940000e+00 -2.611500e-10
-4.930000e+00 -2.651283e-10
-4.920000e+00 -2.691480e-10
-4.910000e+00 -2.732067e-10
-4.900000e+00 -2.773027e-10
-4.890000e+00 -2.814345e-10
-4.880000e+00 -2.856013e-10
-4.870000e+00 -2.898030e-10
-4.860000e+00 -2.940401e-10
-4.850000e+00 -2.983135e-10
-4.840000e+00 -3.026251e-10
-4.830000e+00 -3.069771e-10
-4.820000e+00 -3.113723e-10
-4.810000e+00 -3.158139e-10
-4.800000e+00 -3.203054e-10
-4.790000e+00 -3.248506e-10
-4.780000e+00 -3.294535e-10
-4.770000e+00 -3.341178e-10
-4.760000e+00 -3.388474e-10
-4.750000e+00 -3.436459e-10
-4.740000e+00 -3.485164e-10
-4.730000e+00 -3.534618e-10
-4.720000e+00 -3.584844e-10
-4.710000e+00 -3.635858e-10
-4.700000e+00 -3.687674e-10
-4.690000e+00 -3.740298e-10
-4.680000e+00 -3.793728e-10
-4.670000e+00 -3.847961e-10
-4.660000e+00 -3.902985e-10
-4.650000e+00 -3.958786e-10
-4.640000e+00 -4.015346e-10
-4.630000e+00 -4.072646e-10
-4.620000e+00 -4.130662e-10
-4.610000e+00 -4.189374e-10
-4.600000e+00 -4.248762e-10
-4.590000e+00 -4.308805e-10
-4.580000e+00 -4.369491e-10
-4.570000e+00 -4.430807e-10
-4.560000e+00 -4.492747e-10
-4.550000e+00 -4.555313e-10
-4.540000e+00 -4.618507e-10
-4.530000e+00 -4.682343e-10
-4.520000e+00 -4.746840e-10
-4.510000e+00 -4.812017e-10
-4.500000e+00 -4.877908e-10
-4.490000e+00 -4.944543e-10
-4.480000e+00 -5.011960e-10
-4.470000e+00 -5.080199e-10
-4.460000e+00 -5.149300e-10
-4.450000e+00 -5.219305e-10
-4.440000e+00 -5.290255e-10
-4.430000e+00 -5.362187e-10
-4.420000e+00 -5.435135e-10
-4.410000e+00 -5.509132e-10
-4.400000e+00 -5.584201e-10
-4.390000e+00 -5.660361e-10
-4.380000e+00 -5.737624e-10
-4.370000e+00 -5.815996e-10
-4.360000e+00 -5.895476e-10
-4.350000e+00 -5.976055e-10
-4.340000e+00 -6.057720e-10
-4.330000e+00 -6.140451e-10
-4.320000e+00 -6.224224e-10
-4.310000e+00 -6.309011e-10
-4.300000e+00 -6.394783e-10
-4.290000e+00 -6.481509e-10
-4.280000e+00 -6.569157e-10
-4.270000e+00 -6.657702e-10
-4.260000e+00 -6.747113e-10
-4.250000e+00 -6.837374e-10
-4.240000e+00 -6.928467e-10
-4.230000e+00 -7.020380e-10
-4.220000e+00 -7.113115e-10
-4.210000e+00 -7.206674e-10
-4.200000e+00 -7.301068e-10
-4.190000e+00 -7.396320e-10
-4.180000e+00 -7.492456e-10
-4.170000e+00 -7.589508e-10
-4.160000e+00 -7.687518e-10
-4.150000e+00 -7.786531e-10
-4.140000e+00 -7.886595e-10
-4.130000e+00 -7.987759e-10
-4.120000e+00 -8.090077e-10
-4.110000e+00 -8.193601e-10
-4.100000e+00 -8.298379e-10
-4.090000e+00 -8.404459e-10
-4.080000e+00 -8.511883e-10
-4.070000e+00 -8.620689e-10
-4.060000e+00 -8.730907e-10
-4.050000e+00 -8.842563e-10
-4.040000e+00 -8.955671e-10
-4.030000e+00 -9.070242e-10
-4.020000e+00 -9.186277e-10
-4.010000e+00 -9.303773e-10
-4.000000e+00 -9.422717e-10
-3.990000e+00 -9.543094e-10
-3.980000e+00 -9.664879e-10
-3.970000e+00 -9.788051e-10
-3.960000e+00 -9.912583e-10
-3.950000e+00 -1.003845e-09
-3.940001e+00 -1.016562e-09
-3.930000e+00 -1.029407e-09
-3.920000e+00 -1.042378e-09
-3.910000e+00 -1.055474e-09
-3.900001e+00 -1.068693e-09
-3.890000e+00 -1.082034e-09
-3.880000e+00 -1.095499e-09
-3.870000e+00 -1.109087e-09
-3.860001e+00 -1.122801e-09
-3.850000e+00 -1.136641e-09
-3.840000e+00 -1.150612e-09
-3.830000e+00 -1.164717e-09
-3.820001e+00 -1.178959e-09
-3.810000e+00 -1.193342e-09
-3.800000e+00 -1.207872e-09
-3.790000e+00 -1.222551e-09
-3.780000e+00 -1.237386e-09
-3.770000e+00 -1.252379e-09
-3.760000e+00 -1.267536e-09
-3.750000e+00 -1.282859e-09
-3.740000e+00 -1.298352e-09
-3.730000e+00 -1.314018e-09
-3.720000e+00 -1.329858e-09
-3.710000e+00 -1.345874e-09
-3.700000e+00 -1.362066e-09
-3.690001e+00 -1.378435e-09
-3.680000e+00 -1.394980e-09
-3.670000e+00 -1.411699e-09
-3.660000e+00 -1.428593e-09
-3.650001e+00 -1.445657e-09
-3.640000e+00 -1.462892e-09
-3.630000e+00 -1.480294e-09
-3.620000e+00 -1.497861e-09
-3.610001e+00 -1.515592e-09
-3.600000e+00 -1.533485e-09
-3.590000e+00 -1.551539e-09
-3.580000e+00 -1.569754e-09
-3.570001e+00 -1.588128e-09
-3.560000e+00 -1.606662e-09
-3.550000e+00 -1.625359e-09
-3.540000e+00 -1.644219e-09
-3.530000e+00 -1.663245e-09
-3.520000e+00 -1.682440e-09
-3.510000e+00 -1.701809e-09
-3.500000e+00 -1.721354e-09
-3.490000e+00 -1.741081e-09
-3.480000e+00 -1.760995e-09
-3.470000e+00 -1.781099e-09
-3.460000e+00 -1.801400e-09
-3.450000e+00 -1.821901e-09
-3.440001e+00 -1.842607e-09
-3.430000e+00 -1.863521e-09
-3.420000e+00 -1.884648e-09
-3.410000e+00 -1.905991e-09
-3.400001e+00 -1.927550e-09
-3.390000e+00 -1.949329e-09
-3.380000e+00 -1.971327e-09
-3.370000e+00 -1.993544e-09
-3.360001e+00 -2.015981e-09
-3.350000e+00 -2.038635e-09
-3.340000e+00 -2.061505e-09
-3.330000e+00 -2.084590e-09
-3.320001e+00 -2.107885e-09
-3.310000e+00 -2.131390e-09
-3.300000e+00 -2.155101e-09
-3.290000e+00 -2.179016e-09
-3.280000e+00 -2.203132e-09
-3.270000e+00 -2.227447e-09
-3.260000e+00 -2.251961e-09
-3.250000e+00 -2.276672e-09
-3.240000e+00 -2.301580e-09
-3.230000e+00 -2.326685e-09
-3.220000e+00 -2.351989e-09
-3.210000e+00 -2.377494e-09
-3.200000e+00 -2.403202e-09
-3.190001e+00 -2.429116e-09
-3.180000e+00 -2.455241e-09
-3.170000e+00 -2.481580e-09
-3.160000e+00 -2.508138e-09
-3.150001e+00 -2.534920e-09
-3.140000e+00 -2.561931e-09
-3.130000e+00 -2.589175e-09
-3.120000e+00 -2.616657e-09
-3.110001e+00 -2.644381e-09
-3.100000e+00 -2.672350e-09
-3.090000e+00 -2.700570e-09
-3.080000e+00 -2.729040e-09
-3.070001e+00 -2.757764e-09
-3.060000e+00 -2.786743e-09
-3.050000e+00 -2.815976e-09
-3.040000e+00 -2.845465e-09
-3.030000e+00 -2.875207e-09
-3.020000e+00 -2.905201e-09
-3.010000e+00 -2.935445e-09
-3.000000e+00 -2.965937e-09
-2.990000e+00 -2.996674e-09
-2.980000e+00 -3.027653e-09
-2.970000e+00 -3.058872e-09
-2.960000e+00 -3.090328e-09
-2.950000e+00 -3.122019e-09
-2.940001e+00 -3.153943e-09
-2.930000e+00 -3.186099e-09
-2.920000e+00 -3.218487e-09
-2.910000e+00 -3.251106e-09
-2.900001e+00 -3.283959e-09
-2.890000e+00 -3.317045e-09
-2.880000e+00 -3.350369e-09
-2.870000e+00 -3.383932e-09
-2.860001e+00 -3.417739e-09
-2.850000e+00 -3.451794e-09
-2.840000e+00 -3.486102e-09
-2.830000e+00 -3.520667e-09
-2.820001e+00 -3.555494e-09
-2.810000e+00 -3.590589e-09
-2.800000e+00 -3.625957e-09
-2.790000e+00 -3.661601e-09
-2.780000e+00 -3.697527e-09
-2.770000e+00 -3.733737e-09
-2.760000e+00 -3.770234e-09
-2.750000e+00 -3.807020e-09
-2.740000e+00 -3.844096e-09
-2.730000e+00 -3.881463e-09
-2.720000e+00 -3.919119e-09
-2.710000e+00 -3.957064e-09
-2.700000e+00 -3.995296e-09
-2.690001e+00 -4.033812e-09
-2.680000e+00 -4.072607e-09
-2.670000e+00 -4.111679e-09
-2.660000e+00 -4.151024e-09
-2.650001e+00 -4.190639e-09
-2.640000e+00 -4.230517e-09
-2.630000e+00 -4.270657e-09
-2.620000e+00 -4.311055e-09
-2.610001e+00 -4.351707e-09
-2.600000e+00 -4.392611e-09
-2.590000e+00 -4.433767e-09
-2.580000e+00 -4.475173e-09
-2.570001e+00 -4.516829e-09
-2.560000e+00 -4.558737e-09
-2.550000e+00 -4.600898e-09
-2.540000e+00 -4.643315e-09
-2.530001e+00 -4.685991e-09
-2.520000e+00 -4.728930e-09
-2.510000e+00 -4.772136e-09
-2.500000e+00 -4.815615e-09
-2.490000e+00 -4.859369e-09
-2.480000e+00 -4.903405e-09
-2.470000e+00 -4.947728e-09
-2.460000e+00 -4.992342e-09
-2.450000e+00 -5.037250e-09
-2.440001e+00 -5.082456e-09
-2.430000e+00 -5.127962e-09
-2.420000e+00 -5.173772e-09
-2.410000e+00 -5.219884e-09
-2.400001e+00 -5.266300e-09
-2.390000e+00 -5.313019e-09
-2.380000e+00 -5.360039e-09
-2.370000e+00 -5.407358e-09
-2.360001e+00 -5.454973e-09
-2.350000e+00 -5.502881e-09
-2.340000e+00 -5.551077e-09
-2.330000e+00 -5.599557e-09
-2.320001e+00 -5.648317e-09
-2.310000e+00 -5.697354e-09
-2.300000e+00 -5.746662e-09
-2.290000e+00 -5.796237e-09
-2.280001e+00 -5.846077e-09
-2.270000e+00 -5.896178e-09
-2.260000e+00 -5.946540e-09
-2.250000e+00 -5.997160e-09
-2.240000e+00 -6.048038e-09
-2.230000e+00 -6.099174e-09
-2.220000e+00 -6.150571e-09
-2.210000e+00 -6.202229e-09
-2.200000e+00 -6.254151e-09
-2.190001e+00 -6.306339e-09
-2.180000e+00 -6.358798e-09
-2.170000e+00 -6.411532e-09
-2.160000e+00 -6.464544e-09
-2.150001e+00 -6.517837e-09
-2.140000e+00 -6.571415e-09
-2.130000e+00 -6.625283e-09
-2.120000e+00 -6.679441e-09
-2.110001e+00 -6.733892e-09
-2.100000e+00 -6.788637e-09
-2.090000e+00 -6.843677e-09
-2.080000e+00 -6.899012e-09
-2.070001e+00 -6.954639e-09
-2.060000e+00 -7.010556e-09
-2.050000e+00 -7.066762e-09
-2.040000e+00 -7.123250e-09
-2.030001e+00 -7.180017e-09
-2.020000e+00 -7.237059e-09
-2.010000e+00 -7.294369e-09
-2.000000e+00 -7.351941e-09
-1.990000e+00 -7.409771e-09
-1.980000e+00 -7.467851e-09
-1.970000e+00 -7.526177e-09
-1.960000e+00 -7.584743e-09
-1.950000e+00 -7.643545e-09
-1.940001e+00 -7.702579e-09
-1.930000e+00 -7.761842e-09
-1.920000e+00 -7.821331e-09
-1.910000e+00 -7.881047e-09
-1.900001e+00 -7.940986e-09
-1.890000e+00 -8.001149e-09
-1.880000e+00 -8.061538e-09
-1.870000e+00 -8.122155e-09
-1.860001e+00 -8.183002e-09
-1.850000e+00 -8.244080e-09
-1.840000e+00 -8.305395e-09
-1.830000e+00 -8.366951e-09
-1.820001e+00 -8.428747e-09
-1.810000e+00 -8.490788e-09
-1.800000e+00 -8.553076e-09
-1.790000e+00 -8.615615e-09
-1.780001e+00 -8.678405e-09
-1.770000e+00 -8.741446e-09
-1.760000e+00 -8.804740e-09
-1.750000e+00 -8.868285e-09
-1.740000e+00 -8.932078e-09
-1.730000e+00 -8.996118e-09
-1.720000e+00 -9.060400e-09
-1.710000e+00 -9.124919e-09
-1.700000e+00 -9.189669e-09
-1.690001e+00 -9.254648e-09
-1.680000e+00 -9.319847e-09
-1.670000e+00 -9.385259e-09
-1.660000e+00 -9.450877e-09
-1.650001e+00 -9.516694e-09
-1.640000e+00 -9.582704e-09
-1.630000e+00 -9.648900e-09
-1.620000e+00 -9.715276e-09
-1.610001e+00 -9.781828e-09
-1.600000e+00 -9.848549e-09
-1.590000e+00 -9.915436e-09
-1.580000e+00 -9.982485e-09
-1.570001e+00 -1.004970e-08
-1.560000e+00 -1.011706e-08
-1.550000e+00 -1.018459e-08
-1.540000e+00 -1.025227e-08
-1.530001e+00 -1.032011e-08
-1.520000e+00 -1.038811e-08
-1.510000e+00 -1.045627e-08
-1.500000e+00 -1.052458e-08
-1.490000e+00 -1.059306e-08
-1.480000e+00 -1.066170e-08
-1.470000e+00 -1.073050e-08
-1.460000e+00 -1.079946e-08
-1.450000e+00 -1.086858e-08
-1.440001e+00 -1.093786e-08
-1.430000e+00 -1.100731e-08
-1.420000e+00 -1.107690e-08
-1.410000e+00 -1.114665e-08
-1.400001e+00 -1.121655e-08
-1.390000e+00 -1.128659e-08
-1.380000e+00 -1.135676e-08
-1.370000e+00 -1.142707e-08
-1.360001e+00 -1.149750e-08
-1.350000e+00 -1.156804e-08
-1.340000e+00 -1.163869e-08
-1.330000e+00 -1.170944e-08
-1.320001e+00 -1.178028e-08
-1.310000e+00 -1.185121e-08
-1.300000e+00 -1.192221e-08
-1.290000e+00 -1.199329e-08
-1.280001e+00 -1.206443e-08
-1.270000e+00 -1.213562e-08
-1.260000e+00 -1.220687e-08
-1.250000e+00 -1.227817e-08
-1.240000e+00 -1.234952e-08