-1.200000e+01 0.000000e+00
-1.199000e+01 0.000000e+00
-1.198000e+01 0.000000e+00
-1.197000e+01 0.000000e+00
-1.196000e+01 4.096692e-26
-1.195000e+01 -1.013195e-22
-1.194000e+01 -1.106160e-21
-1.193000e+01 -6.565616e-21
-1.192000e+01 -2.808054e-20
-1.191000e+01 -9.679641e-20
-1.190000e+01 -2.854052e-19
-1.189000e+01 -7.464599e-19
-1.188000e+01 -1.774267e-18
-1.187000e+01 -3.898841e-18
-1.186000e+01 -8.021135e-18
-1.185000e+01 -1.559877e-17
-1.184000e+01 -2.889043e-17
-1.183000e+01 -5.126473e-17
-1.182000e+01 -8.757564e-17
-1.181000e+01 -1.446007e-16
-1.180000e+01 -2.315313e-16
-1.179000e+01 -3.604946e-16
-1.178000e+01 -5.470754e-16
-1.177000e+01 -8.107953e-16
-1.176000e+01 -1.175491e-15
-1.175000e+01 -1.669517e-15
-1.174000e+01 -2.325696e-15
-1.173000e+01 -3.180902e-15
-1.172000e+01 -4.275178e-15
-1.171000e+01 -5.650261e-15
-1.170000e+01 -7.347388e-15
-1.169000e+01 -9.404260e-15
-1.168000e+01 -1.185104e-14
-1.167000e+01 -1.470527e-14
-1.166000e+01 -1.796565e-14
-1.165000e+01 -2.160457e-14
-1.164000e+01 -2.555941e-14
-1.163000e+01 -2.972269e-14
-1.162000e+01 -3.393100e-14
-1.161000e+01 -3.795307e-14
-1.160000e+01 -4.147706e-14
-1.159000e+01 -4.409744e-14
-1.158000e+01 -4.530191e-14
-1.157000e+01 -4.445874e-14
-1.156000e+01 -4.080522e-14
-1.155000e+01 -3.343787e-14
-1.154000e+01 -2.130511e-14
-1.153000e+01 -3.203292e-15
-1.152000e+01 2.222309e-14
-1.151000e+01 5.647605e-14
-1.150000e+01 1.011927e-13
-1.149000e+01 1.581268e-13
-1.148000e+01 2.291229e-13
-1.147000e+01 3.160807e-13
-1.146000e+01 4.209119e-13
-1.145000e+01 5.454851e-13
-1.144000e+01 6.915624e-13
-1.143000e+01 8.607246e-13
-1.142000e+01 1.054287e-12
-1.141000e+01 1.273204e-12
-1.140000e+01 1.517968e-12
-1.139000e+01 1.788499e-12
-1.138000e+01 2.084027e-12
-1.137000e+01 2.402973e-12
-1.136000e+01 2.742828e-12
-1.135000e+01 3.100031e-12
-1.134000e+01 3.469859e-12
-1.133000e+01 3.846314e-12
-1.132000e+01 4.222033e-12
-1.131000e+01 4.588210e-12
-1.130000e+01 4.934537e-12
-1.129000e+01 5.249174e-12
-1.128000e+01 5.518750e-12
-1.127000e+01 5.728389e-12
-1.126000e+01 5.861793e-12
-1.125000e+01 5.901344e-12
-1.124000e+01 5.828271e-12
-1.123000e+01 5.622857e-12
-1.122000e+01 5.264695e-12
-1.121000e+01 4.732999e-12
-1.120000e+01 4.006967e-12
-1.119000e+01 3.066187e-12
-1.118000e+01 1.891102e-12
-1.117000e+01 4.635078e-13
-1.116000e+01 -1.232903e-12
-1.115000e+01 -3.211970e-12
-1.114000e+01 -5.484464e-12
-1.113000e+01 -8.057483e-12
-1.112000e+01 -1.093383e-11
-1.111000e+01 -1.411141e-11
-1.110000e+01 -1.758265e-11
-1.109000e+01 -2.133394e-11
-1.108000e+01 -2.534518e-11
-1.107000e+01 -2.958929e-11
-1.106000e+01 -3.403193e-11
-1.105000e+01 -3.863121e-11
-1.104000e+01 -4.333759e-11
-1.103000e+01 -4.809388e-11
-1.102000e+01 -5.283540e-11
-1.101000e+01 -5.749021e-11
-1.100000e+01 -6.197971e-11
-1.099000e+01 -6.621913e-11
-1.098000e+01 -7.011849e-11
-1.097000e+01 -7.358347e-11
-1.096000e+01 -7.651668e-11
-1.095000e+01 -7.881896e-11
-1.094000e+01 -8.039092e-11
-1.093000e+01 -8.113455e-11
-1.092000e+01 -8.095511e-11
-1.091000e+01 -7.976292e-11
-1.090000e+01 -7.747544e-11
-1.089000e+01 -7.401928e-11
-1.088000e+01 -6.933226e-11
-1.087000e+01 -6.336547e-11
-1.086000e+01 -5.608528e-11
-1.085000e+01 -4.747527e-11
-1.084000e+01 -3.753794e-11
-1.083000e+01 -2.629635e-11
-1.082000e+01 -1.379543e-11
-1.081000e+01 -1.031153e-13
-1.080000e+01 1.468888e-11
-1.079000e+01 3.046466e-11
-1.078000e+01 4.708409e-11
-1.077000e+01 6.438314e-11
-1.076000e+01 8.217479e-11
-1.075000e+01 1.002502e-10
-1.074000e+01 1.183804e-10
-1.073000e+01 1.363189e-10
-1.072000e+01 1.538038e-10
-1.071000e+01 1.705615e-10
-1.070000e+01 1.863098e-10
-1.069000e+01 2.007623e-10
-1.068000e+01 2.136326e-10
-1.067000e+01 2.246387e-10
-1.066000e+01 2.335084e-10
-1.065000e+01 2.399839e-10
-1.064000e+01 2.438271e-10
-1.063000e+01 2.448251e-10
-1.062000e+01 2.427945e-10
-1.061000e+01 2.375872e-10
-1.060000e+01 2.290944e-10
-1.059000e+01 2.172509e-10
-1.058000e+01 2.020392e-10
-1.057000e+01 1.834922e-10
-1.056000e+01 1.616959e-10
-1.055000e+01 1.367915e-10
-1.054000e+01 1.089756e-10
-1.053000e+01 7.850057e-11
-1.052000e+01 4.567378e-11
-1.051000e+01 1.085524e-11
-1.050000e+01 -2.554516e-11
-1.049000e+01 -6.307172e-11
-1.048000e+01 -1.012280e-10
-1.047000e+01 -1.394827e-10
-1.046000e+01 -1.772770e-10
-1.045000e+01 -2.140319e-10
-1.044000e+01 -2.491572e-10
-1.043000e+01 -2.820605e-10
-1.042000e+01 -3.121573e-10
-1.041000e+01 -3.388811e-10
-1.040000e+01 -3.616938e-10
-1.039000e+01 -3.800959e-10
-1.038000e+01 -3.936376e-10
-1.037000e+01 -4.019281e-10
-1.036000e+01 -4.046455e-10
-1.035000e+01 -4.015455e-10
-1.034000e+01 -3.924694e-10
-1.033000e+01 -3.773505e-10
-1.032000e+01 -3.562202e-10
-1.031000e+01 -3.292115e-10
-1.030000e+01 -2.965617e-10
-1.029000e+01 -2.586131e-10
-1.028000e+01 -2.158120e-10
-1.027000e+01 -1.687054e-10
-1.026000e+01 -1.179366e-10
-1.025000e+01 -6.423764e-11
-1.024000e+01 -8.421209e-12
-1.023000e+01 4.863046e-11
-1.022000e+01 1.059778e-10
-1.021000e+01 1.626379e-10
-1.020000e+01 2.175998e-10
-1.019000e+01 2.698416e-10
-1.018000e+01 3.183475e-10
-1.017000e+01 3.621263e-10
-1.016000e+01 4.002306e-10
-1.015000e+01 4.317748e-10
-1.014000e+01 4.559542e-10
-1.013000e+01 4.720630e-10
-1.012000e+01 4.795109e-10
-1.011000e+01 4.778389e-10
-1.010000e+01 4.667336e-10
-1.009000e+01 4.460387e-10
-1.008000e+01 4.157650e-10
-1.007000e+01 3.760971e-10
-1.006000e+01 3.273984e-10
-1.005000e+01 2.702112e-10
-1.004000e+01 2.052556e-10
-1.003000e+01 1.334235e-10
-1.002000e+01 5.576993e-11
-1.001000e+01 -2.649878e-11
-1.000000e+01 -1.120408e-10
-9.990000e+00 -1.993975e-10
-9.980000e+00 -2.870144e-10
-9.970000e+00 -3.732666e-10
-9.960000e+00 -4.564845e-10
-9.950000e+00 -5.349831e-10
-9.940001e+00 -6.070919e-10
-9.930000e+00 -6.711867e-10
-9.920000e+00 -7.257213e-10
-9.910000e+00 -7.692596e-10
-9.900000e+00 -8.005067e-10
-9.890000e+00 -8.183393e-10
-9.880000e+00 -8.218341e-10
-9.870000e+00 -8.102933e-10
-9.860001e+00 -7.832683e-10
-9.850000e+00 -7.405789e-10
-9.840000e+00 -6.823283e-10
-9.830000e+00 -6.089146e-10
-9.820000e+00 -5.210365e-10
-9.809999e+00 -4.196943e-10
-9.800000e+00 -3.061849e-10
-9.790000e+00 -1.820916e-10
-9.780000e+00 -4.926843e-11
-9.770000e+00 9.018188e-11
-9.760000e+00 2.339349e-10
-9.750000e+00 3.794768e-10
-9.740000e+00 5.241415e-10
-9.730000e+00 6.651527e-10
-9.720000e+00 7.996691e-10
-9.710000e+00 9.248327e-10
-9.700000e+00 1.037821e-09
-9.690001e+00 1.135898e-09
-9.680000e+00 1.216470e-09
-9.670000e+00 1.277137e-09
-9.660000e+00 1.315744e-09
-9.650000e+00 1.330436e-09
-9.640000e+00 1.319698e-09
-9.630000e+00 1.282403e-09
-9.620000e+00 1.217847e-09
-9.610001e+00 1.125781e-09
-9.600000e+00 1.006438e-09
-9.590000e+00 8.605475e-10
-9.580000e+00 6.893489e-10
-9.570000e+00 4.945891e-10
-9.559999e+00 2.785158e-10
-9.550000e+00 4.386076e-11
-9.540000e+00 -2.061873e-10
-9.530000e+00 -4.680176e-10
-9.520000e+00 -7.376420e-10
-9.510000e+00 -1.010747e-09
-9.500000e+00 -1.282756e-09
-9.490000e+00 -1.548895e-09
-9.480000e+00 -1.804266e-09
-9.470000e+00 -2.043929e-09
-9.460000e+00 -2.262982e-09
-9.450000e+00 -2.456646e-09
-9.440001e+00 -2.620353e-09
-9.430000e+00 -2.749833e-09
-9.420000e+00 -2.841195e-09
-9.410000e+00 -2.891014e-09
-9.400000e+00 -2.896400e-09
-9.390000e+00 -2.855075e-09
-9.380000e+00 -2.765431e-09
-9.370000e+00 -2.626583e-09
-9.360001e+00 -2.438416e-09
-9.350000e+00 -2.201610e-09
-9.340000e+00 -1.917666e-09
-9.330000e+00 -1.588903e-09
-9.320000e+00 -1.218459e-09
-9.309999e+00 -8.102631e-10
-9.300000e+00 -3.689995e-10
-9.290000e+00 9.993975e-11
-9.280000e+00 5.905207e-10
-9.270000e+00 1.096144e-09
-9.260000e+00 1.609732e-09
-9.250000e+00 2.123831e-09
-9.240000e+00 2.630718e-09
-9.230000e+00 3.122521e-09
-9.220000e+00 3.591337e-09
-9.210000e+00 4.029364e-09
-9.200000e+00 4.429030e-09
-9.190001e+00 4.783121e-09
-9.180000e+00 5.084912e-09
-9.170000e+00 5.328284e-09
-9.160000e+00 5.507851e-09
-9.150000e+00 5.619055e-09
-9.140000e+00 5.658275e-09
-9.130000e+00 5.622903e-09
-9.120000e+00 5.511416e-09
-9.110001e+00 5.323432e-09
-9.100000e+00 5.059739e-09
-9.090000e+00 4.722319e-09
-9.080000e+00 4.314339e-09
-9.070000e+00 3.840133e-09
-9.060000e+00 3.305159e-09
-9.050000e+00 2.715931e-09
-9.040000e+00 2.079945e-09
-9.030000e+00 1.405573e-09
-9.020000e+00 7.019464e-10
-9.010000e+00 -2.117413e-11
-9.000000e+00 -7.535489e-10
-8.990000e+00 -1.484616e-09
-8.980000e+00 -2.203657e-09
-8.970000e+00 -2.899976e-09
-8.960000e+00 -3.563069e-09
-8.950000e+00 -4.182808e-09
-8.940001e+00 -4.749614e-09
-8.930000e+00 -5.254627e-09
-8.920000e+00 -5.689865e-09
-8.910000e+00 -6.048378e-09
-8.900000e+00 -6.324380e-09
-8.890000e+00 -6.513369e-09
-8.880000e+00 -6.612221e-09
-8.870000e+00 -6.619272e-09
-8.860001e+00 -6.534369e-09
-8.850000e+00 -6.358898e-09
-8.840000e+00 -6.095787e-09
-8.830000e+00 -5.749481e-09
-8.820000e+00 -5.325892e-09
-8.810000e+00 -4.832318e-09
-8.800000e+00 -4.277345e-09
-8.790000e+00 -3.670717e-09
-8.780000e+00 -3.023184e-09
-8.770000e+00 -2.346333e-09
-8.760000e+00 -1.652399e-09
-8.750000e+00 -9.540609e-10
-8.740000e+00 -2.642238e-10
-8.730000e+00 4.042024e-10
-8.720000e+00 1.038533e-09
-8.710000e+00 1.626539e-09
-8.700000e+00 2.156671e-09
-8.690001e+00 2.618276e-09
-8.680000e+00 3.001812e-09
-8.670000e+00 3.299031e-09
-8.660000e+00 3.503156e-09
-8.650000e+00 3.609032e-09
-8.640000e+00 3.613248e-09
-8.630000e+00 3.514235e-09
-8.620000e+00 3.312332e-09
-8.610001e+00 3.009820e-09
-8.600000e+00 2.610919e-09
-8.590000e+00 2.121756e-09
-8.580000e+00 1.550296e-09
-8.570000e+00 9.062386e-10
-8.560000e+00 2.008811e-10
-8.550000e+00 -5.530468e-10
-8.540000e+00 -1.341579e-09
-8.530000e+00 -2.149737e-09
-8.520000e+00 -2.961770e-09
-8.510000e+00 -3.761423e-09
-8.500000e+00 -4.532210e-09
-8.490000e+00 -5.257706e-09
-8.480000e+00 -5.921836e-09
-8.470000e+00 -6.509174e-09
-8.460000e+00 -7.005223e-09
-8.450000e+00 -7.396700e-09
-8.440001e+00 -7.671796e-09
-8.430000e+00 -7.820418e-09
-8.420000e+00 -7.834413e-09
-8.410000e+00 -7.707746e-09
-8.400000e+00 -7.436665e-09
-8.390000e+00 -7.019820e-09
-8.380000e+00 -6.458342e-09
-8.370000e+00 -5.755881e-09
-8.360001e+00 -4.918608e-09
-8.350000e+00 -3.955164e-09
-8.340000e+00 -2.876573e-09
-8.330000e+00 -1.696108e-09
-8.320000e+00 -4.291179e-10
-8.310000e+00 9.071850e-10
-8.300000e+00 2.293975e-09
-8.290000e+00 3.711093e-09
-8.280000e+00 5.137356e-09
-8.270000e+00 6.550890e-09
-8.260000e+00 7.929483e-09
-8.250000e+00 9.250942e-09
-8.240000e+00 1.049347e-08
-8.230000e+00 1.163602e-08
-8.220000e+00 1.265868e-08
-8.210000e+00 1.354301e-08
-8.200000e+00 1.427238e-08
-8.190001e+00 1.483225e-08
-8.180000e+00 1.521049e-08
-8.170000e+00 1.539759e-08
-8.160000e+00 1.538687e-08
-8.150000e+00 1.517463e-08
-8.140000e+00 1.476026e-08
-8.130000e+00 1.414632e-08
-8.120000e+00 1.333850e-08
-8.110001e+00 1.234562e-08
-8.100000e+00 1.117949e-08
-8.090000e+00 9.854803e-09
-8.080000e+00 8.388893e-09
-8.070000e+00 6.801509e-09
-8.060000e+00 5.114522e-09
-8.050000e+00 3.351588e-09
-8.040000e+00 1.537791e-09
-8.030000e+00 -3.007545e-10
-8.020000e+00 -2.137315e-09
-8.010000e+00 -3.944969e-09
-8.000000e+00 -5.697040e-09
-7.990000e+00 -7.367535e-09
-7.980000e+00 -8.931580e-09
-7.970000e+00 -1.036583e-08
-7.960000e+00 -1.164885e-08
-7.950000e+00 -1.276151e-08
-7.940000e+00 -1.368731e-08
-7.930000e+00 -1.441262e-08
-7.920000e+00 -1.492698e-08
-7.910000e+00 -1.522329e-08
-7.900000e+00 -1.529790e-08
-7.890000e+00 -1.515072e-08
-7.880000e+00 -1.478526e-08
-7.870000e+00 -1.420852e-08
-7.860000e+00 -1.343099e-08
-7.850000e+00 -1.246639e-08
-7.840000e+00 -1.133151e-08
-7.830000e+00 -1.004594e-08
-7.820000e+00 -8.631723e-09
-7.810000e+00 -7.113027e-09
-7.800000e+00 -5.515716e-09
-7.790000e+00 -3.866935e-09
-7.780000e+00 -2.194648e-09
-7.770000e+00 -5.271737e-10
-7.760000e+00 1.107302e-09
-7.750000e+00 2.681201e-09
-7.740000e+00 4.168021e-09
-7.730000e+00 5.542795e-09
-7.720000e+00 6.782518e-09
-7.710000e+00 7.866540e-09
-7.700000e+00 8.776933e-09
-7.690000e+00 9.498788e-09
-7.680000e+00 1.002049e-08
-7.670000e+00 1.033390e-08
-7.660000e+00 1.043454e-08
-7.650000e+00 1.032162e-08
-7.640000e+00 9.998074e-09
-7.630000e+00 9.470538e-09
-7.620000e+00 8.749193e-09
-7.610000e+00 7.847611e-09
-7.600000e+00 6.782508e-09
-7.590000e+00 5.573458e-09
-7.580000e+00 4.242538e-09
-7.570000e+00 2.813948e-09
-7.560000e+00 1.313574e-09
-7.550000e+00 -2.314689e-10
-7.540000e+00 -1.793316e-09
-7.530000e+00 -3.343856e-09
-7.520000e+00 -4.855227e-09
-7.510000e+00 -6.300321e-09
-7.500000e+00 -7.653268e-09
-7.490000e+00 -8.889901e-09
-7.480000e+00 -9.988194e-09
-7.470000e+00 -1.092866e-08
-7.460000e+00 -1.169471e-08
-7.450000e+00 -1.227294e-08
-7.440000e+00 -1.265339e-08
-7.430000e+00 -1.282973e-08
-7.420000e+00 -1.279938e-08
-7.410000e+00 -1.256353e-08
-7.400000e+00 -1.212719e-08
-7.390000e+00 -1.149904e-08
-7.380000e+00 -1.069129e-08
-7.370000e+00 -9.719503e-09
-7.360000e+00 -8.602267e-09
-7.350000e+00 -7.360893e-09
-7.340000e+00 -6.019016e-09
-7.330000e+00 -4.602170e-09
-7.320000e+00 -3.137328e-09
-7.310000e+00 -1.652404e-09
-7.300000e+00 -1.757501e-10
-7.290000e+00 1.264370e-09
-7.280000e+00 2.640294e-09
-7.270000e+00 3.925476e-09
-7.260000e+00 5.094975e-09
-7.250000e+00 6.125922e-09
-7.240000e+00 6.997946e-09
-7.230000e+00 7.693556e-09
-7.220000e+00 8.198475e-09
-7.210000e+00 8.501917e-09
-7.200000e+00 8.596795e-09
-7.190000e+00 8.479873e-09
-7.180000e+00 8.151837e-09
-7.170000e+00 7.617303e-09
-7.160000e+00 6.884750e-09
-7.150000e+00 5.966382e-09
-7.140000e+00 4.877931e-09
-7.130000e+00 3.638380e-09
-7.120000e+00 2.269636e-09
-7.110000e+00 7.961538e-10
-7.100000e+00 -7.555020e-10
-7.090000e+00 -2.357119e-09
-7.080000e+00 -3.979340e-09
-7.070000e+00 -5.592180e-09
-7.060000e+00 -7.165569e-09
-7.050000e+00 -8.669873e-09
-7.040000e+00 -1.007644e-08
-7.030000e+00 -1.135809e-08
-7.020000e+00 -1.248964e-08
-7.010000e+00 -1.344829e-08
-7.000000e+00 -1.421411e-08
-6.990000e+00 -1.477032e-08
-6.980000e+00 -1.510366e-08
-6.970000e+00 -1.520455e-08
-6.960000e+00 -1.506732e-08
-6.950000e+00 -1.469031e-08
-6.940000e+00 -1.407583e-08
-6.930000e+00 -1.323018e-08
-6.920000e+00 -1.216353e-08
-6.910000e+00 -1.088969e-08
-6.900000e+00 -9.425876e-09
-6.890000e+00 -7.792426e-09
-6.880000e+00 -6.012395e-09
-6.870000e+00 -4.111148e-09
-6.860000e+00 -2.115909e-09
-6.850000e+00 -5.526607e-11
-6.840000e+00 2.041340e-09
-6.830000e+00 4.144139e-09
-6.820000e+00 6.223561e-09
-6.810000e+00 8.250758e-09
-6.800000e+00 1.019811e-08
-6.790000e+00 1.203970e-08
-6.780000e+00 1.375176e-08
-6.770000e+00 1.531308e-08
-6.760000e+00 1.670535e-08
-6.750000e+00 1.791344e-08
-6.740000e+00 1.892567e-08
-6.730000e+00 1.973393e-08
-6.720000e+00 2.033382e-08
-6.710000e+00 2.072462e-08
-6.700000e+00 2.090928e-08
-6.690000e+00 2.089432e-08
-6.680000e+00 2.068958e-08
-6.670000e+00 2.030802e-08
-6.660000e+00 1.976542e-08
-6.650000e+00 1.907998e-08
-6.640000e+00 1.827194e-08
-6.630000e+00 1.736313e-08
-6.620000e+00 1.637651e-08
-6.610000e+00 1.533566e-08
-6.600000e+00 1.426431e-08
-6.590000e+00 1.318582e-08
-6.580000e+00 1.212268e-08
-6.570000e+00 1.109609e-08
-6.560000e+00 1.012550e-08
-6.550000e+00 9.228181e-09
-6.540000e+00 8.418939e-09
-6.530000e+00 7.709772e-09
-6.520000e+00 7.109652e-09
-6.510000e+00 6.624352e-09
-6.500000e+00 6.256347e-09
-6.490000e+00 6.004778e-09
-6.480000e+00 5.865499e-09
-6.470000e+00 5.831187e-09
-6.460000e+00 5.891521e-09
-6.450000e+00 6.033434e-09
-6.440000e+00 6.241414e-09
-6.430000e+00 6.497876e-09
-6.420000e+00 6.783565e-09
-6.410000e+00 7.078008e-09
-6.400000e+00 7.359997e-09
-6.390000e+00 7.608088e-09
-6.380000e+00 7.801118e-09
-6.370000e+00 7.918709e-09
-6.360000e+00 7.941779e-09
-6.350000e+00 7.853016e-09
-6.340000e+00 7.637336e-09
-6.330000e+00 7.282285e-09
-6.320000e+00 6.778405e-09
-6.310000e+00 6.119533e-09
-6.300000e+00 5.303045e-09
-6.290000e+00 4.330018e-09
-6.280000e+00 3.205329e-09
-6.270000e+00 1.937670e-09
-6.260000e+00 5.394880e-10
-6.250000e+00 -9.731602e-10
-6.240000e+00 -2.580820e-09
-6.230000e+00 -4.260933e-09
-6.220000e+00 -5.988198e-09
-6.210000e+00 -7.734994e-09
-6.200000e+00 -9.471855e-09
-6.190000e+00 -1.116801e-08
-6.180000e+00 -1.279191e-08
-6.170000e+00 -1.431189e-08
-6.160000e+00 -1.569668e-08
-6.150000e+00 -1.691609e-08
-6.140000e+00 -1.794159e-08
-6.130000e+00 -1.874686e-08
-6.120000e+00 -1.930841e-08
-6.110000e+00 -1.960601e-08
-6.100000e+00 -1.962322e-08
-6.090000e+00 -1.934772e-08
-6.080000e+00 -1.877168e-08
-6.070000e+00 -1.789199e-08
-6.060000e+00 -1.671041e-08
-6.050000e+00 -1.523365e-08
-6.040000e+00 -1.347336e-08
-6.030000e+00 -1.144602e-08
-6.020000e+00 -9.172735e-09
-6.010000e+00 -6.678915e-09
-6.000000e+00 -3.993951e-09
-5.990000e+00 -1.150726e-09
-5.980000e+00 1.814901e-09
-5.970000e+00 4.864686e-09
-5.960000e+00 7.958640e-09
-5.950000e+00 1.105571e-08
-5.940000e+00 1.411450e-08
-5.930000e+00 1.709399e-08
-5.920000e+00 1.995429e-08
-5.910000e+00 2.265731e-08
-5.900000e+00 2.516753e-08
-5.890000e+00 2.745261e-08
-5.880000e+00 2.948404e-08
-5.870000e+00 3.123763e-08
-5.860000e+00 3.269408e-08
-5.850000e+00 3.383929e-08
-5.840000e+00 3.466472e-08
-5.830000e+00 3.516759e-08
-5.820000e+00 3.535097e-08
-5.810000e+00 3.522382e-08
-5.800000e+00 3.480085e-08
-5.790000e+00 3.410232e-08
-5.780000e+00 3.315377e-08
-5.770000e+00 3.198556e-08
-5.760000e+00 3.063238e-08
-5.750000e+00 2.913270e-08
-5.740000e+00 2.752807e-08
-5.730000e+00 2.586243e-08
-5.720000e+00 2.418131e-08
-5.710000e+00 2.253107e-08
-5.700000e+00 2.095800e-08
-5.690000e+00 1.950754e-08
-5.680000e+00 1.822344e-08
-5.670000e+00 1.714692e-08
-5.660000e+00 1.631594e-08
-5.650000e+00 1.576445e-08
-5.640000e+00 1.552175e-08
-5.630000e+00 1.561190e-08
-5.620000e+00 1.605326e-08
-5.610000e+00 1.685806e-08
-5.600000e+00 1.803216e-08
-5.590000e+00 1.957484e-08
-5.580000e+00 2.147875e-08
-5.570000e+00 2.373001e-08
-5.560000e+00 2.630832e-08
-5.550000e+00 2.918733e-08
-5.540000e+00 3.233500e-08
-5.530000e+00 3.571411e-08
-5.520000e+00 3.928292e-08
-5.510000e+00 4.299578e-08
-5.500000e+00 4.680401e-08
-5.490000e+00 5.065663e-08
-5.480000e+00 5.450131e-08
-5.470000e+00 5.828523e-08
-5.460000e+00 6.195605e-08
-5.450000e+00 6.546282e-08
-5.440000e+00 6.875690e-08
-5.430000e+00 7.179281e-08
-5.420000e+00 7.452912e-08
-5.410000e+00 7.692913e-08
-5.400000e+00 7.896165e-08
-5.390000e+00 8.060155e-08
-5.380000e+00 8.183023e-08
-5.370000e+00 8.263608e-08
-5.360000e+00 8.301469e-08
-5.350000e+00 8.296901e-08
-5.340000e+00 8.250937e-08
-5.330000e+00 8.165338e-08
-5.320000e+00 8.042566e-08
-5.310000e+00 7.885756e-08
-5.300000e+00 7.698655e-08
-5.290000e+00 7.485578e-08
-5.280000e+00 7.251329e-08
-5.270000e+00 7.001127e-08
-5.260000e+00 6.740523e-08
-5.250000e+00 6.475307e-08
-5.240000e+00 6.211410e-08
-5.230000e+00 5.954813e-08
-5.220000e+00 5.711440e-08
-5.210000e+00 5.487064e-08
-5.200000e+00 5.287206e-08
-5.190000e+00 5.117049e-08
-5.180000e+00 4.981344e-08
-5.170000e+00 4.884336e-08
-5.160000e+00 4.829687e-08
-5.150000e+00 4.820421e-08
-5.140000e+00 4.858870e-08
-5.130000e+00 4.946632e-08
-5.120000e+00 5.084550e-08
-5.110000e+00 5.272697e-08
-5.100000e+00 5.510374e-08
-5.090000e+00 5.796122e-08
-5.080000e+00 6.127752e-08
-5.070000e+00 6.502380e-08
-5.060000e+00 6.916477e-08
-5.050000e+00 7.365932e-08
-5.040000e+00 7.846120e-08
-5.030000e+00 8.351986e-08
-5.020000e+00 8.878124e-08
-5.010000e+00 9.418881e-08
-5.000000e+00 9.968443e-08
-4.990000e+00 1.052094e-07
-4.980000e+00 1.107055e-07
-4.970000e+00 1.161157e-07
-4.960000e+00 1.213858e-07
-4.950000e+00 1.264643e-07
-4.940000e+00 1.313044e-07
-4.930000e+00 1.358639e-07
-4.920000e+00 1.401064e-07
-4.910000e+00 1.440017e-07
-4.900000e+00 1.475262e-07
-4.890000e+00 1.506635e-07
-4.880000e+00 1.534046e-07
-4.870000e+00 1.557478e-07
-4.860000e+00 1.576990e-07
-4.850000e+00 1.592712e-07
-4.840000e+00 1.604846e-07
-4.830000e+00 1.613661e-07
-4.820000e+00 1.619487e-07
-4.810000e+00 1.622708e-07
-4.800000e+00 1.623759e-07
-4.790000e+00 1.623115e-07
-4.780000e+00 1.621283e-07
-4.770000e+00 1.618795e-07
-4.760000e+00 1.616195e-07
-4.750000e+00 1.614035e-07
-4.740000e+00 1.612861e-07
-4.730000e+00 1.613204e-07
-4.720000e+00 1.615575e-07
-4.710000e+00 1.620450e-07
-4.700000e+00 1.628268e-07
-4.690000e+00 1.639422e-07
-4.680000e+00 1.654252e-07
-4.670000e+00 1.673038e-07
-4.660000e+00 1.695999e-07
-4.650000e+00 1.723288e-07
-4.640000e+00 1.754992e-07
-4.630000e+00 1.791128e-07
-4.620000e+00 1.831646e-07
-4.610000e+00 1.876429e-07
-4.600000e+00 1.925298e-07
-4.590000e+00 1.978014e-07
-4.580000e+00 2.034282e-07
-4.570000e+00 2.093760e-07
-4.560000e+00 2.156064e-07
-4.550000e+00 2.220775e-07
-4.540000e+00 2.287445e-07
-4.530000e+00 2.355611e-07
-4.520000e+00 2.424798e-07
-4.510000e+00 2.494530e-07
-4.500000e+00 2.564339e-07
-4.490000e+00 2.633771e-07
-4.480000e+00 2.702398e-07
-4.470000e+00 2.769823e-07
-4.460000e+00 2.835687e-07
-4.450000e+00 2.899675e-07
-4.440000e+00 2.961523e-07
-4.430000e+00 3.021022e-07
-4.420000e+00 3.078019e-07
-4.410000e+00 3.132425e-07
-4.400000e+00 3.184207e-07
-4.390000e+00 3.233401e-07
-4.380000e+00 3.280098e-07
-4.370000e+00 3.324453e-07
-4.360000e+00 3.366673e-07
-4.350000e+00 3.407021e-07
-4.340000e+00 3.445806e-07
-4.330000e+00 3.483377e-07
-4.320000e+00 3.520123e-07
-4.310000e+00 3.556459e-07
-4.300000e+00 3.592822e-07
-4.290000e+00 3.629663e-07
-4.280000e+00 3.667441e-07
-4.270000e+00 3.706613e-07
-4.260000e+00 3.747626e-07
-4.250000e+00 3.790912e-07
-4.240000e+00 3.836879e-07
-4.230000e+00 3.885905e-07
-4.220000e+00 3.938335e-07
-4.210000e+00 3.994470e-07
-4.200000e+00 4.054567e-07
-4.190000e+00 4.118833e-07
-4.180000e+00 4.187427e-07
-4.170000e+00 4.260451e-07
-4.160000e+00 4.337954e-07
-4.150000e+00 4.419934e-07
-4.140000e+00 4.506332e-07
-4.130000e+00 4.597042e-07
-4.120000e+00 4.691910e-07
-4.110000e+00 4.790734e-07
-4.100000e+00 4.893278e-07
-4.090000e+00 4.999267e-07
-4.080000e+00 5.108401e-07
-4.070000e+00 5.220353e-07
-4.060000e+00 5.334780e-07
-4.050000e+00 5.451331e-07
-4.040000e+00 5.569648e-07
-4.030000e+00 5.689375e-07
-4.020000e+00 5.810169e-07
-4.010000e+00 5.931695e-07
-4.000000e+00 6.053646e-07
-3.990000e+00 6.175733e-07
-3.980000e+00 6.297699e-07
-3.970000e+00 6.419323e-07
-3.960000e+00 6.540419e-07
-3.950000e+00 6.660838e-07
-3.940001e+00 6.780476e-07
-3.930000e+00 6.899266e-07
-3.920000e+00 7.017186e-07
-3.910000e+00 7.134255e-07
-3.900001e+00 7.250529e-07
-3.890000e+00 7.366106e-07
-3.880000e+00 7.481112e-07
-3.870000e+00 7.595710e-07
-3.860001e+00 7.710088e-07
-3.850000e+00 7.824456e-07
-3.840000e+00 7.939045e-07
-3.830000e+00 8.054096e-07
-3.820001e+00 8.169862e-07
-3.810000e+00 8.286597e-07
-3.800000e+00 8.404554e-07
-3.790000e+00 8.523980e-07
-3.780000e+00 8.645112e-07
-3.770000e+00 8.768171e-07
-3.760000e+00 8.893356e-07
-3.750000e+00 9.020852e-07
-3.740000e+00 9.150810e-07
-3.730000e+00 9.283360e-07
-3.720000e+00 9.418600e-07
-3.710000e+00 9.556602e-07
-3.700000e+00 9.697403e-07
-3.690001e+00 9.841019e-07
-3.680000e+00 9.987428e-07
-3.670000e+00 1.013659e-06
-3.660000e+00 1.028843e-06
-3.650001e+00 1.044287e-06
-3.640000e+00 1.059979e-06
-3.630000e+00 1.075907e-06
-3.620000e+00 1.092058e-06
-3.610001e+00 1.108418e-06
-3.600000e+00 1.124971e-06
-3.590000e+00 1.141705e-06
-3.580000e+00 1.158605e-06
-3.570001e+00 1.175658e-06
-3.560000e+00 1.192854e-06
-3.550000e+00 1.210182e-06
-3.540000e+00 1.227635e-06
-3.530000e+00 1.245207e-06
-3.520000e+00 1.262897e-06
-3.510000e+00 1.280704e-06
-3.500000e+00 1.298631e-06
-3.490000e+00 1.316684e-06
-3.480000e+00 1.334872e-06
-3.470000e+00 1.353207e-06
-3.460000e+00 1.371703e-06
-3.450000e+00 1.390379e-06
-3.440001e+00 1.409254e-06
-3.430000e+00 1.428350e-06
-3.420000e+00 1.447691e-06
-3.410000e+00 1.467303e-06
-3.400001e+00 1.487213e-06
-3.390000e+00 1.507449e-06
-3.380000e+00 1.528038e-06
-3.370000e+00 1.549010e-06
-3.360001e+00 1.570393e-06
-3.350000e+00 1.592213e-06
-3.340000e+00 1.614497e-06
-3.330000e+00 1.637270e-06
-3.320001e+00 1.660553e-06
-3.310000e+00 1.684369e-06
-3.300000e+00 1.708735e-06
-3.290000e+00 1.733667e-06
-3.280000e+00 1.759178e-06
-3.270000e+00 1.785277e-06
-3.260000e+00 1.811973e-06
-3.250000e+00 1.839268e-06
-3.240000e+00 1.867165e-06
-3.230000e+00 1.895661e-06
-3.220000e+00 1.924753e-06
-3.210000e+00 1.954433e-06
-3.200000e+00 1.984691e-06
-3.190001e+00 2.015518e-06
-3.180000e+00 2.046899e-06
-3.170000e+00 2.078820e-06
-3.160000e+00 2.111266e-06
-3.150001e+00 2.144221e-06
-3.140000e+00 2.177667e-06
-3.130000e+00 2.211587e-06
-3.120000e+00 2.245966e-06
-3.110001e+00 2.280786e-06
-3.100000e+00 2.316033e-06
-3.090000e+00 2.351693e-06
-3.080000e+00 2.387752e-06
-3.070001e+00 2.424201e-06
-3.060000e+00 2.461029e-06
-3.050000e+00 2.498229e-06
-3.040000e+00 2.535796e-06
-3.030000e+00 2.573726e-06
-3.020000e+00 2.612018e-06
-3.010000e+00 2.650672e-06
-3.000000e+00 2.689691e-06
-2.990000e+00 2.729078e-06
-2.980000e+00 2.768839e-06
-2.970000e+00 2.808982e-06
-2.960000e+00 2.849514e-06
-2.950000e+00 2.890444e-06
-2.940001e+00 2.931781e-06
-2.930000e+00 2.973537e-06
-2.920000e+00 3.015721e-06
-2.910000e+00 3.058343e-06
-2.900001e+00 3.101413e-06
-2.890000e+00 3.144939e-06
-2.880000e+00 3.188930e-06
-2.870000e+00 3.233393e-06
-2.860001e+00 3.278333e-06
-2.850000e+00 3.323755e-06
-2.840000e+00 3.369662e-06
-2.830000e+00 3.416055e-06
-2.820001e+00 3.462934e-06
-2.810000e+00 3.510297e-06
-2.800000e+00 3.558141e-06
-2.790000e+00 3.606463e-06
-2.780000e+00 3.655256e-06
-2.770000e+00 3.704514e-06
-2.760000e+00 3.754230e-06
-2.750000e+00 3.804396e-06
-2.740000e+00 3.855004e-06
-2.730000e+00 3.906046e-06
-2.720000e+00 3.957513e-06
-2.710000e+00 4.009401e-06
-2.700000e+00 4.061702e-06
-2.690001e+00 4.114412e-06
-2.680000e+00 4.167528e-06
-2.670000e+00 4.221050e-06
-2.660000e+00 4.274978e-06
-2.650001e+00 4.329316e-06
-2.640000e+00 4.384071e-06
-2.630000e+00 4.439250e-06
-2.620000e+00 4.494866e-06
-2.610001e+00 4.550934e-06
-2.600000e+00 4.607471e-06
-2.590000e+00 4.664499e-06
-2.580000e+00 4.722040e-06
-2.570001e+00 4.780121e-06
-2.560000e+00 4.838772e-06
-2.550000e+00 4.898024e-06
-2.540000e+00 4.957910e-06
-2.530001e+00 5.018465e-06
-2.520000e+00 5.079727e-06
-2.510000e+00 5.141732e-06
-2.500000e+00 5.204520e-06
-2.490000e+00 5.268128e-06
-2.480000e+00 5.332598e-06
-2.470000e+00 5.397964e-06
-2.460000e+00 5.464266e-06
-2.450000e+00 5.531538e-06
-2.440001e+00 5.599814e-06
-2.430000e+00 5.669125e-06
-2.420000e+00 5.739500e-06
-2.410000e+00 5.810965e-06
-2.400001e+00 5.883542e-06
-2.390000e+00 5.957249e-06
-2.380000e+00 6.032103e-06
-2.370000e+00 6.108113e-06
-2.360001e+00 6.185287e-06
-2.350000e+00 6.263628e-06
-2.340000e+00 6.343136e-06
-2.330000e+00 6.423805e-06
-2.320001e+00 6.505627e-06
-2.310000e+00 6.588588e-06
-2.300000e+00 6.672674e-06
-2.290000e+00 6.757866e-06
-2.280001e+00 6.844141e-06
-2.270000e+00 6.931474e-06
-2.260000e+00 7.019841e-06
-2.250000e+00 7.109212e-06
-2.240000e+00 7.199560e-06
-2.230000e+00 7.290853e-06
-2.220000e+00 7.383062e-06
-2.210000e+00 7.476158e-06
-2.200000e+00 7.570111e-06
-2.190001e+00 7.664893e-06
-2.180000e+00 7.760478e-06
-2.170000e+00 7.856843e-06
-2.160000e+00 7.953964e-06
-2.150001e+00 8.051823e-06
-2.140000e+00 8.150406e-06
-2.130000e+00 8.249697e-06
-2.120000e+00 8.349689e-06
-2.110001e+00 8.450376e-06
-2.100000e+00 8.551759e-06
-2.090000e+00 8.653836e-06
-2.080000e+00 8.756614e-06
-2.070001e+00 8.860105e-06
-2.060000e+00 8.964321e-06
-2.050000e+00 9.069278e-06
-2.040000e+00 9.174997e-06
-2.030001e+00 9.281500e-06
-2.020000e+00 9.388812e-06
-2.010000e+00 9.496961e-06
-2.000000e+00 9.605978e-06
-1.990000e+00 9.715891e-06
-1.980000e+00 9.826734e-06
-1.970000e+00 9.938539e-06
-1.960000e+00 1.005134e-05
-1.950000e+00 1.016516e-05
-1.940001e+00 1.028005e-05
-1.930000e+00 1.039602e-05
-1.920000e+00 1.051311e-05
-1.910000e+00 1.063135e-05
-1.900001e+00 1.075075e-05
-1.890000e+00 1.087135e-05
-1.880000e+00 1.099317e-05
-1.870000e+00 1.111621e-05
-1.860001e+00 1.124050e-05
-1.850000e+00 1.136605e-05
-1.840000e+00 1.149286e-05
-1.830000e+00 1.162094e-05
-1.820001e+00 1.175029e-05
-1.810000e+00 1.188092e-05
-1.800000e+00 1.201281e-05
-1.790000e+00 1.214598e-05
-1.780001e+00 1.228040e-05
-1.770000e+00 1.241606e-05
-1.760000e+00 1.255297e-05
-1.750000e+00 1.269111e-05
-1.740000e+00 1.283046e-05
-1.730000e+00 1.297102e-05
-1.720000e+00 1.311276e-05
-1.710000e+00 1.325569e-05
-1.700000e+00 1.339980e-05
-1.690001e+00 1.354506e-05
-1.680000e+00 1.369148e-05
-1.670000e+00 1.383906e-05
-1.660000e+00 1.398779e-05
-1.650001e+00 1.413766e-05
-1.640000e+00 1.428870e-05
-1.630000e+00 1.444089e-05
-1.620000e+00 1.459426e-05
-1.610001e+00 1.474882e-05
-1.600000e+00 1.490458e-05
-1.590000e+00 1.506157e-05
-1.580000e+00 1.521980e-05
-1.570001e+00 1.537931e-05
-1.560000e+00 1.554012e-05
-1.550000e+00 1.570227e-05
-1.540000e+00 1.586579e-05
-1.530001e+00 1.603071e-05
-1.520000e+00 1.619708e-05
-1.510000e+00 1.636492e-05
-1.500000e+00 1.653427e-05
-1.490000e+00 1.670518e-05
-1.480000e+00 1.687767e-05
-1.470000e+00 1.705179e-05
-1.460000e+00 1.722756e-05
-1.450000e+00 1.740502e-05
-1.440001e+00 1.758420e-05
-1.430000e+00 1.776511e-05
-1.420000e+00 1.794778e-05
-1.410000e+00 1.813223e-05
-1.400001e+00 1.831846e-05
-1.390000e+00 1.850649e-05
-1.380000e+00 1.869631e-05
-1.370000e+00 1.888793e-05
-1.360001e+00 1.908132e-05
-1.350000e+00 1.927649e-05
-1.340000e+00 1.947342e-05
-1.330000e+00 1.967207e-05
-1.320001e+00 1.987243e-05
-1.310000e+00 2.007445e-05
-1.300000e+00 2.027812e-05
-1.290000e+00 2.048337e-05
-1.280001e+00 2.069019e-05
-1.270000e+00 2.089851e-05
-1.260000e+00 2.110830e-05
-1.250000e+00 2.131951e-05
-1.240000e+00 2.153210e-05
-1.230000e+00 2.174601e-05
-1.220000e+00 2.196121e-05
-1.210000e+00 2.217765e-05
-1.200000e+00 2.239529e-05
-1.190001e+00 2.261409e-05
-1.180000e+00 2.283403e-05
-1.170000e+00 2.305507e-05
-1.160000e+00 2.327718e-05
-1.150001e+00 2.350036e-05
-1.140000e+00 2.372459e-05
-1.130000e+00 2.394985e-05
-1.120000e+00 2.417616e-05
-1.110001e+00 2.440352e-05
-1.100000e+00 2.463194e-05
-1.090000e+00 2.486143e-05
-1.080000e+00 2.509202e-05
-1.070001e+00 2.532375e-05
-1.060000e+00 2.555664e-05
-1.050000e+00 2.579073e-05
-1.040000e+00 2.602607e-05
-1.030001e+00 2.626271e-05
-1.020000e+00 2.650069e-05