-1.200000e+01 0.000000e+00
-1.199000e+01 0.000000e+00
-1.198000e+01 0.000000e+00
-1.197000e+01 0.000000e+00
-1.196000e+01 5.967551e-29
-1.195000e+01 -1.051664e-25
-1.194000e+01 -1.135850e-24
-1.193000e+01 -6.652477e-24
-1.192000e+01 -2.801208e-23
-1.191000e+01 -9.485477e-23
-1.190000e+01 -2.741077e-22
-1.189000e+01 -7.009432e-22
-1.188000e+01 -1.624864e-21
-1.187000e+01 -3.472927e-21
-1.186000e+01 -6.929828e-21
-1.185000e+01 -1.303095e-20
-1.184000e+01 -2.325962e-20
-1.183000e+01 -3.963356e-20
-1.182000e+01 -6.475863e-20
-1.181000e+01 -1.018206e-19
-1.180000e+01 -1.544786e-19
-1.179000e+01 -2.266181e-19
-1.178000e+01 -3.219186e-19
-1.177000e+01 -4.431904e-19
-1.176000e+01 -5.914402e-19
-1.175000e+01 -7.646359e-19
-1.174000e+01 -9.561554e-19
-1.173000e+01 -1.152933e-18
-1.172000e+01 -1.333336e-18
-1.171000e+01 -1.464860e-18
-1.170000e+01 -1.501744e-18
-1.169000e+01 -1.382677e-18
-1.168000e+01 -1.028805e-18
-1.167000e+01 -3.422671e-19
-1.166000e+01 7.944291e-19
-1.165000e+01 2.517910e-18
-1.164000e+01 4.981982e-18
-1.163000e+01 8.353906e-18
-1.162000e+01 1.280864e-17
-1.161000e+01 1.852078e-17
-1.160000e+01 2.565411e-17
-1.159000e+01 3.434867e-17
-1.158000e+01 4.470544e-17
-1.157000e+01 5.676898e-17
-1.156000e+01 7.050836e-17
-1.155000e+01 8.579707e-17
-1.154000e+01 1.023928e-16
-1.153000e+01 1.199179e-16
-1.152000e+01 1.378421e-16
-1.151000e+01 1.554685e-16
-1.150000e+01 1.719247e-16
-1.149000e+01 1.861595e-16
-1.148000e+01 1.969491e-16
-1.147000e+01 2.029110e-16
-1.146000e+01 2.025290e-16
-1.145000e+01 1.941909e-16
-1.144000e+01 1.762360e-16
-1.143000e+01 1.470175e-16
-1.142000e+01 1.049743e-16
-1.141000e+01 4.871579e-17
-1.140000e+01 -2.288592e-17
-1.139000e+01 -1.105959e-16
-1.138000e+01 -2.147130e-16
-1.137000e+01 -3.349673e-16
-1.136000e+01 -4.704203e-16
-1.135000e+01 -6.193771e-16
-1.134000e+01 -7.793105e-16
-1.133000e+01 -9.468081e-16
-1.132000e+01 -1.117543e-15
-1.131000e+01 -1.286276e-15
-1.130000e+01 -1.446896e-15
-1.129000e+01 -1.592494e-15
-1.128000e+01 -1.715490e-15
-1.127000e+01 -1.807792e-15
-1.126000e+01 -1.861011e-15
-1.125000e+01 -1.866710e-15
-1.124000e+01 -1.816702e-15
-1.123000e+01 -1.703371e-15
-1.122000e+01 -1.520028e-15
-1.121000e+01 -1.261282e-15
-1.120000e+01 -9.234141e-16
-1.119000e+01 -5.047437e-16
-1.118000e+01 -5.976971e-18
-1.117000e+01 5.694875e-16
-1.116000e+01 1.215304e-15
-1.115000e+01 1.921998e-15
-1.114000e+01 2.676863e-15
-1.113000e+01 3.463965e-15
-1.112000e+01 4.264248e-15
-1.111000e+01 5.055770e-15
-1.110000e+01 5.814059e-15
-1.109000e+01 6.512593e-15
-1.108000e+01 7.123421e-15
-1.107000e+01 7.617880e-15
-1.106000e+01 7.967448e-15
-1.105000e+01 8.144656e-15
-1.104000e+01 8.124096e-15
-1.103000e+01 7.883447e-15
-1.102000e+01 7.404528e-15
-1.101000e+01 6.674319e-15
-1.100000e+01 5.685921e-15
-1.099000e+01 4.439425e-15
-1.098000e+01 2.942629e-15
-1.097000e+01 1.211588e-15
-1.096000e+01 -7.290455e-16
-1.095000e+01 -2.845932e-15
-1.094000e+01 -5.097221e-15
-1.093000e+01 -7.433010e-15
-1.092000e+01 -9.796123e-15
-1.091000e+01 -1.212316e-14
-1.090000e+01 -1.434590e-14
-1.089000e+01 -1.639288e-14
-1.088000e+01 -1.819134e-14
-1.087000e+01 -1.966933e-14
-1.086000e+01 -2.075793e-14
-1.085000e+01 -2.139363e-14
-1.084000e+01 -2.152076e-14
-1.083000e+01 -2.109379e-14
-1.082000e+01 -2.007961e-14
-1.081000e+01 -1.845953e-14
-1.080000e+01 -1.623107e-14
-1.079000e+01 -1.340933e-14
-1.078000e+01 -1.002793e-14
-1.077000e+01 -6.139520e-15
-1.076000e+01 -1.815640e-15
-1.075000e+01 2.853934e-15
-1.074000e+01 7.762497e-15
-1.073000e+01 1.278833e-14
-1.072000e+01 1.779723e-14
-1.071000e+01 2.264560e-14
-1.070000e+01 2.718406e-14
-1.069000e+01 3.126152e-14
-1.068000e+01 3.472958e-14
-1.067000e+01 3.744716e-14
-1.066000e+01 3.928528e-14
-1.065000e+01 4.013174e-14
-1.064000e+01 3.989572e-14
-1.063000e+01 3.851194e-14
-1.062000e+01 3.594443e-14
-1.061000e+01 3.218960e-14
-1.060000e+01 2.727863e-14
-1.059000e+01 2.127885e-14
-1.058000e+01 1.429425e-14
-1.057000e+01 6.464842e-15
-1.056000e+01 -2.035071e-15
-1.055000e+01 -1.099976e-14
-1.054000e+01 -2.019606e-14
-1.053000e+01 -2.936847e-14
-1.052000e+01 -3.824519e-14
-1.051000e+01 -4.654505e-14
-1.050000e+01 -5.398517e-14
-1.049000e+01 -6.028914e-14
-1.048000e+01 -6.519549e-14
-1.047000e+01 -6.846630e-14
-1.046000e+01 -6.989559e-14
-1.045000e+01 -6.931732e-14
-1.044000e+01 -6.661272e-14
-1.043000e+01 -6.171667e-14
-1.042000e+01 -5.462283e-14
-1.041000e+01 -4.538755e-14
-1.040000e+01 -3.413200e-14
-1.039000e+01 -2.104274e-14
-1.038000e+01 -6.370271e-15
-1.037000e+01 9.574147e-15
-1.036000e+01 2.642372e-14
-1.035000e+01 4.376315e-14
-1.034000e+01 6.113746e-14
-1.033000e+01 7.806234e-14
-1.032000e+01 9.403607e-14
-1.031000e+01 1.085523e-13
-1.030000e+01 1.211139e-13
-1.029000e+01 1.312472e-13
-1.028000e+01 1.385161e-13
-1.027000e+01 1.425363e-13
-1.026000e+01 1.429886e-13
-1.025000e+01 1.396309e-13
-1.024000e+01 1.323090e-13
-1.023000e+01 1.209653e-13
-1.022000e+01 1.056456e-13
-1.021000e+01 8.650339e-14
-1.020000e+01 6.380068e-14
-1.019000e+01 3.790720e-14
-1.018000e+01 9.295741e-15
-1.017000e+01 -2.146506e-14
-1.016000e+01 -5.372094e-14
-1.015000e+01 -8.674494e-14
-1.014000e+01 -1.197528e-13
-1.013000e+01 -1.519206e-13
-1.012000e+01 -1.824039e-13
-1.011000e+01 -2.103588e-13
-1.010000e+01 -2.349634e-13
-1.009000e+01 -2.554395e-13
-1.008000e+01 -2.710745e-13
-1.007000e+01 -2.812423e-13
-1.006000e+01 -2.854222e-13
-1.005000e+01 -2.832170e-13
-1.004000e+01 -2.743675e-13
-1.003000e+01 -2.587648e-13
-1.002000e+01 -2.364590e-13
-1.001000e+01 -2.076638e-13
-1.000000e+01 -1.727578e-13
-9.990000e+00 -1.322816e-13
-9.980000e+00 -8.692992e-14
-9.970000e+00 -3.754106e-14
-9.960000e+00 1.491893e-14
-9.950000e+00 6.937492e-14
-9.940001e+00 1.246650e-13
-9.930000e+00 1.795655e-13
-9.920000e+00 2.328182e-13
-9.910000e+00 2.831596e-13
-9.900000e+00 3.293506e-13
-9.890000e+00 3.702067e-13
-9.880000e+00 4.046281e-13
-9.870000e+00 4.316280e-13
-9.860001e+00 4.503590e-13
-9.850000e+00 4.601376e-13
-9.840000e+00 4.604641e-13
-9.830000e+00 4.510398e-13
-9.820000e+00 4.317794e-13
-9.809999e+00 4.028184e-13
-9.800000e+00 3.645157e-13
-9.790000e+00 3.174508e-13
-9.780000e+00 2.624160e-13
-9.770000e+00 2.004031e-13
-9.760000e+00 1.325853e-13
-9.750000e+00 6.029433e-14
-9.740000e+00 -1.500645e-14
-9.730000e+00 -9.175274e-14
-9.720000e+00 -1.683129e-13
-9.710000e+00 -2.430237e-13
-9.700000e+00 -3.142277e-13
-9.690001e+00 -3.803108e-13
-9.680000e+00 -4.397399e-13
-9.670000e+00 -4.910993e-13
-9.660000e+00 -5.331249e-13
-9.650000e+00 -5.647353e-13
-9.640000e+00 -5.850598e-13
-9.630000e+00 -5.934614e-13
-9.620000e+00 -5.895555e-13
-9.610001e+00 -5.732226e-13
-9.600000e+00 -5.446149e-13
-9.590000e+00 -5.041578e-13
-9.580000e+00 -4.525445e-13
-9.570000e+00 -3.907243e-13
-9.559999e+00 -3.198854e-13
-9.550000e+00 -2.414315e-13
-9.540000e+00 -1.569540e-13
-9.530000e+00 -6.819867e-14
-9.520000e+00 2.297114e-14
-9.510000e+00 1.146143e-13
-9.500000e+00 2.047541e-13
-9.490000e+00 2.914223e-13
-9.480000e+00 3.727023e-13
-9.470000e+00 4.467730e-13
-9.460000e+00 5.119501e-13
-9.450000e+00 5.667254e-13
-9.440001e+00 6.098019e-13
-9.430000e+00 6.401251e-13
-9.420000e+00 6.569094e-13
-9.410000e+00 6.596577e-13
-9.400000e+00 6.481757e-13
-9.390000e+00 6.225796e-13
-9.380000e+00 5.832956e-13
-9.370000e+00 5.310543e-13
-9.360001e+00 4.668766e-13
-9.350000e+00 3.920542e-13
-9.340000e+00 3.081226e-13
-9.330000e+00 2.168297e-13
-9.320000e+00 1.200984e-13
-9.309999e+00 1.998522e-14
-9.300000e+00 -8.136384e-14
-9.290000e+00 -1.817607e-13
-9.280000e+00 -2.790234e-13
-9.270000e+00 -3.710241e-13
-9.260000e+00 -4.557372e-13
-9.250000e+00 -5.312840e-13
-9.240000e+00 -5.959760e-13
-9.230000e+00 -6.483527e-13
-9.220000e+00 -6.872150e-13
-9.210000e+00 -7.116533e-13
-9.200000e+00 -7.210681e-13
-9.190001e+00 -7.151847e-13
-9.180000e+00 -6.940601e-13
-9.170000e+00 -6.580823e-13
-9.160000e+00 -6.079625e-13
-9.150000e+00 -5.447199e-13
-9.140000e+00 -4.696586e-13
-9.130000e+00 -3.843397e-13
-9.120000e+00 -2.905463e-13
-9.110001e+00 -1.902433e-13
-9.100000e+00 -8.553430e-14
-9.090000e+00 2.138561e-14
-9.080000e+00 1.282786e-13
-9.070000e+00 2.329137e-13
-9.060000e+00 3.331162e-13
-9.050000e+00 4.268153e-13
-9.040000e+00 5.120891e-13
-9.030000e+00 5.872063e-13
-9.020000e+00 6.506628e-13
-9.010000e+00 7.012132e-13
-9.000000e+00 7.378951e-13
-8.990000e+00 7.600485e-13
-8.980000e+00 7.673261e-13
-8.970000e+00 7.596976e-13
-8.960000e+00 7.374463e-13
-8.950000e+00 7.011580e-13
-8.940001e+00 6.517040e-13
-8.930000e+00 5.902177e-13
-8.920000e+00 5.180646e-13
-8.910000e+00 4.368088e-13
-8.900000e+00 3.481751e-13
-8.890000e+00 2.540079e-13
-8.880000e+00 1.562287e-13
-8.870000e+00 5.679305e-14
-8.860001e+00 -4.235280e-14
-8.850000e+00 -1.393132e-13
-8.840000e+00 -2.322823e-13
-8.830000e+00 -3.195803e-13
-8.820000e+00 -3.996846e-13
-8.810000e+00 -4.712575e-13
-8.800000e+00 -5.331684e-13
-8.790000e+00 -5.845092e-13
-8.780000e+00 -6.246058e-13
-8.770000e+00 -6.530233e-13
-8.760000e+00 -6.695643e-13
-8.750000e+00 -6.742642e-13
-8.740000e+00 -6.673798e-13
-8.730000e+00 -6.493746e-13
-8.720000e+00 -6.209000e-13
-8.710000e+00 -5.827742e-13
-8.700000e+00 -5.359583e-13
-8.690001e+00 -4.815314e-13
-8.680000e+00 -4.206656e-13
-8.670000e+00 -3.546001e-13
-8.660000e+00 -2.846171e-13
-8.650000e+00 -2.120192e-13
-8.640000e+00 -1.381079e-13
-8.630000e+00 -6.416524e-14
-8.620000e+00 8.562076e-15
-8.610001e+00 7.887628e-14
-8.600000e+00 1.456390e-13
-8.590000e+00 2.077793e-13
-8.580000e+00 2.642995e-13
-8.570000e+00 3.142786e-13
-8.560000e+00 3.568746e-13
-8.550000e+00 3.913255e-13
-8.540000e+00 4.169494e-13
-8.530000e+00 4.331446e-13
-8.520000e+00 4.393904e-13
-8.510000e+00 4.352478e-13
-8.500000e+00 4.203619e-13
-8.490000e+00 3.944653e-13
-8.480000e+00 3.573830e-13
-8.470000e+00 3.090388e-13
-8.460000e+00 2.494623e-13
-8.450000e+00 1.787986e-13
-8.440001e+00 9.731635e-14
-8.430000e+00 5.418175e-15
-8.420000e+00 -9.635079e-14
-8.410000e+00 -2.072948e-13
-8.400000e+00 -3.265612e-13
-8.390000e+00 -4.531370e-13
-8.380000e+00 -5.858477e-13
-8.370000e+00 -7.233617e-13
-8.360001e+00 -8.641970e-13
-8.350000e+00 -1.006734e-12
-8.340000e+00 -1.149234e-12
-8.330000e+00 -1.289861e-12
-8.320000e+00 -1.426712e-12
-8.310000e+00 -1.557848e-12
-8.300000e+00 -1.681331e-12
-8.290000e+00 -1.795271e-12
-8.280000e+00 -1.897862e-12
-8.270000e+00 -1.987438e-12
-8.260000e+00 -2.062510e-12
-8.250000e+00 -2.121819e-12
-8.240000e+00 -2.164377e-12
-8.230000e+00 -2.189509e-12
-8.220000e+00 -2.196885e-12
-8.210000e+00 -2.186552e-12
-8.200000e+00 -2.158952e-12
-8.190001e+00 -2.114935e-12
-8.180000e+00 -2.055763e-12
-8.170000e+00 -1.983095e-12
-8.160000e+00 -1.898973e-12
-8.150000e+00 -1.805791e-12
-8.140000e+00 -1.706251e-12
-8.130000e+00 -1.603312e-12
-8.120000e+00 -1.500132e-12
-8.110001e+00 -1.399994e-12
-8.100000e+00 -1.306237e-12
-8.090000e+00 -1.222175e-12
-8.080000e+00 -1.151011e-12
-8.070000e+00 -1.095761e-12
-8.060000e+00 -1.059170e-12
-8.050000e+00 -1.043639e-12
-8.040000e+00 -1.051152e-12
-8.030000e+00 -1.083220e-12
-8.020000e+00 -1.140830e-12
-8.010000e+00 -1.224410e-12
-8.000000e+00 -1.333801e-12
-7.990000e+00 -1.468255e-12
-7.980000e+00 -1.626438e-12
-7.970000e+00 -1.806454e-12
-7.960000e+00 -2.005887e-12
-7.950000e+00 -2.221850e-12
-7.940000e+00 -2.451052e-12
-7.930000e+00 -2.689877e-12
-7.920000e+00 -2.934474e-12
-7.910000e+00 -3.180851e-12
-7.900000e+00 -3.424973e-12
-7.890000e+00 -3.662869e-12
-7.880000e+00 -3.890732e-12
-7.870000e+00 -4.105016e-12
-7.860000e+00 -4.302530e-12
-7.850000e+00 -4.480517e-12
-7.840000e+00 -4.636729e-12
-7.830000e+00 -4.769481e-12
-7.820000e+00 -4.877699e-12
-7.810000e+00 -4.960936e-12
-7.800000e+00 -5.019390e-12
-7.790000e+00 -5.053889e-12
-7.780000e+00 -5.065866e-12
-7.770000e+00 -5.057316e-12
-7.760000e+00 -5.030740e-12
-7.750000e+00 -4.989073e-12
-7.740000e+00 -4.935598e-12
-7.730000e+00 -4.873861e-12
-7.720000e+00 -4.807571e-12
-7.710000e+00 -4.740502e-12
-7.700000e+00 -4.676390e-12
-7.690000e+00 -4.618840e-12
-7.680000e+00 -4.571235e-12
-7.670000e+00 -4.536653e-12
-7.660000e+00 -4.517793e-12
-7.650000e+00 -4.516924e-12
-7.640000e+00 -4.535834e-12
-7.630000e+00 -4.575803e-12
-7.620000e+00 -4.637596e-12
-7.610000e+00 -4.721456e-12
-7.600000e+00 -4.827132e-12
-7.590000e+00 -4.953910e-12
-7.580000e+00 -5.100653e-12
-7.570000e+00 -5.265866e-12
-7.560000e+00 -5.447759e-12
-7.550000e+00 -5.644318e-12
-7.540000e+00 -5.853381e-12
-7.530000e+00 -6.072715e-12
-7.520000e+00 -6.300093e-12
-7.510000e+00 -6.533360e-12
-7.500000e+00 -6.770501e-12
-7.490000e+00 -7.009697e-12
-7.480000e+00 -7.249363e-12
-7.470000e+00 -7.488188e-12
-7.460000e+00 -7.725152e-12
-7.450000e+00 -7.959535e-12
-7.440000e+00 -8.190911e-12
-7.430000e+00 -8.419133e-12
-7.420000e+00 -8.644302e-12
-7.410000e+00 -8.866732e-12
-7.400000e+00 -9.086908e-12
-7.390000e+00 -9.305431e-12
-7.380000e+00 -9.522973e-12
-7.370000e+00 -9.740215e-12
-7.360000e+00 -9.957805e-12
-7.350000e+00 -1.017631e-11
-7.340000e+00 -1.039617e-11
-7.330000e+00 -1.061767e-11
-7.320000e+00 -1.084091e-11
-7.310000e+00 -1.106584e-11
-7.300000e+00 -1.129217e-11
-7.290000e+00 -1.151946e-11
-7.280000e+00 -1.174714e-11
-7.270000e+00 -1.197447e-11
-7.260000e+00 -1.220067e-11
-7.250000e+00 -1.242494e-11
-7.240000e+00 -1.264646e-11
-7.230000e+00 -1.286455e-11
-7.220000e+00 -1.307863e-11
-7.210000e+00 -1.328834e-11
-7.200000e+00 -1.349355e-11
-7.190000e+00 -1.369443e-11
-7.180000e+00 -1.389147e-11
-7.170000e+00 -1.408551e-11
-7.160000e+00 -1.427772e-11
-7.150000e+00 -1.446964e-11
-7.140000e+00 -1.466313e-11
-7.130000e+00 -1.486034e-11
-7.120000e+00 -1.506367e-11
-7.110000e+00 -1.527570e-11
-7.100000e+00 -1.549914e-11
-7.090000e+00 -1.573671e-11
-7.080000e+00 -1.599111e-11
-7.070000e+00 -1.626488e-11
-7.060000e+00 -1.656034e-11
-7.050000e+00 -1.687952e-11
-7.040000e+00 -1.722404e-11
-7.030000e+00 -1.759507e-11
-7.020000e+00 -1.799328e-11
-7.010000e+00 -1.841878e-11
-7.000000e+00 -1.887110e-11
-6.990000e+00 -1.934921e-11
-6.980000e+00 -1.985149e-11
-6.970000e+00 -2.037578e-11
-6.960000e+00 -2.091947e-11
-6.950000e+00 -2.147949e-11
-6.940000e+00 -2.205245e-11
-6.930000e+00 -2.263474e-11
-6.920000e+00 -2.322259e-11
-6.910000e+00 -2.381223e-11
-6.900000e+00 -2.439999e-11
-6.890000e+00 -2.498240e-11
-6.880000e+00 -2.555632e-11
-6.870000e+00 -2.611904e-11
-6.860000e+00 -2.666835e-11
-6.850000e+00 -2.720266e-11
-6.840000e+00 -2.772100e-11
-6.830000e+00 -2.822312e-11
-6.820000e+00 -2.870944e-11
-6.810000e+00 -2.918109e-11
-6.800000e+00 -2.963988e-11
-6.790000e+00 -3.008821e-11
-6.780000e+00 -3.052907e-11
-6.770000e+00 -3.096587e-11
-6.760000e+00 -3.140239e-11
-6.750000e+00 -3.184268e-11
-6.740000e+00 -3.229089e-11
-6.730000e+00 -3.275117e-11
-6.720000e+00 -3.322756e-11
-6.710000e+00 -3.372384e-11
-6.700000e+00 -3.424345e-11
-6.690000e+00 -3.478936e-11
-6.680000e+00 -3.536402e-11
-6.670000e+00 -3.596929e-11
-6.660000e+00 -3.660636e-11
-6.650000e+00 -3.727580e-11
-6.640000e+00 -3.797751e-11
-6.630000e+00 -3.871074e-11
-6.620000e+00 -3.947419e-11
-6.610000e+00 -4.026603e-11
-6.600000e+00 -4.108401e-11
-6.590000e+00 -4.192553e-11
-6.580000e+00 -4.278778e-11
-6.570000e+00 -4.366785e-11
-6.560000e+00 -4.456283e-11
-6.550000e+00 -4.546994e-11
-6.540000e+00 -4.638664e-11
-6.530000e+00 -4.731072e-11
-6.520000e+00 -4.824039e-11
-6.510000e+00 -4.917436e-11
-6.500000e+00 -5.011186e-11
-6.490000e+00 -5.105267e-11
-6.480000e+00 -5.199718e-11
-6.470000e+00 -5.294629e-11
-6.460000e+00 -5.390143e-11
-6.450000e+00 -5.486449e-11
-6.440000e+00 -5.583771e-11
-6.430000e+00 -5.682365e-11
-6.420000e+00 -5.782502e-11
-6.410000e+00 -5.884463e-11
-6.400000e+00 -5.988524e-11
-6.390000e+00 -6.094947e-11
-6.380000e+00 -6.203967e-11
-6.370000e+00 -6.315788e-11
-6.360000e+00 -6.430569e-11
-6.350000e+00 -6.548422e-11
-6.340000e+00 -6.669405e-11
-6.330000e+00 -6.793521e-11
-6.320000e+00 -6.920719e-11
-6.310000e+00 -7.050895e-11
-6.300000e+00 -7.183897e-11
-6.290000e+00 -7.319532e-11
-6.280000e+00 -7.457575e-11
-6.270000e+00 -7.597777e-11
-6.260000e+00 -7.739877e-11
-6.250000e+00 -7.883617e-11
-6.240000e+00 -8.028746e-11
-6.230000e+00 -8.175043e-11
-6.220000e+00 -8.322315e-11
-6.210000e+00 -8.470418e-11
-6.200000e+00 -8.619260e-11
-6.190000e+00 -8.768809e-11
-6.180000e+00 -8.919095e-11
-6.170000e+00 -9.070217e-11
-6.160000e+00 -9.222335e-11
-6.150000e+00 -9.375675e-11
-6.140000e+00 -9.530516e-11
-6.130000e+00 -9.687189e-11
-6.120000e+00 -9.846061e-11
-6.110000e+00 -1.000753e-10
-6.100000e+00 -1.017200e-10
-6.090000e+00 -1.033990e-10
-6.080000e+00 -1.051161e-10
-6.070000e+00 -1.068751e-10
-6.060000e+00 -1.086794e-10
-6.050000e+00 -1.105318e-10
-6.040000e+00 -1.124346e-10
-6.030000e+00 -1.143892e-10
-6.020000e+00 -1.163966e-10
-6.010000e+00 -1.184567e-10
-6.000000e+00 -1.205688e-10
-5.990000e+00 -1.227317e-10
-5.980000e+00 -1.249429e-10
-5.970000e+00 -1.272000e-10
-5.960000e+00 -1.294996e-10
-5.950000e+00 -1.318382e-10
-5.940000e+00 -1.342120e-10
-5.930000e+00 -1.366172e-10
-5.920000e+00 -1.390498e-10
-5.910000e+00 -1.415064e-10
-5.900000e+00 -1.439839e-10
-5.890000e+00 -1.464796e-10
-5.880000e+00 -1.489916e-10
-5.870000e+00 -1.515186e-10
-5.860000e+00 -1.540602e-10
-5.850000e+00 -1.566168e-10
-5.840000e+00 -1.591898e-10
-5.830000e+00 -1.617814e-10
-5.820000e+00 -1.643946e-10
-5.810000e+00 -1.670330e-10
-5.800000e+00 -1.697011e-10
-5.790000e+00 -1.724036e-10
-5.780000e+00 -1.751457e-10
-5.770000e+00 -1.779329e-10
-5.760000e+00 -1.807703e-10
-5.750000e+00 -1.836634e-10
-5.740000e+00 -1.866169e-10
-5.730000e+00 -1.896353e-10
-5.720000e+00 -1.927223e-10
-5.710000e+00 -1.958810e-10
-5.700000e+00 -1.991136e-10
-5.690000e+00 -2.024216e-10
-5.680000e+00 -2.058052e-10
-5.670000e+00 -2.092640e-10
-5.660000e+00 -2.127968e-10
-5.650000e+00 -2.164013e-10
-5.640000e+00 -2.200748e-10
-5.630000e+00 -2.238138e-10
-5.620000e+00 -2.276147e-10
-5.610000e+00 -2.314733e-10
-5.600000e+00 -2.353856e-10
-5.590000e+00 -2.393477e-10
-5.580000e+00 -2.433558e-10
-5.570000e+00 -2.474068e-10
-5.560000e+00 -2.514981e-10
-5.550000e+00 -2.556279e-10
-5.540000e+00 -2.597952e-10
-5.530000e+00 -2.640000e-10
-5.520000e+00 -2.682431e-10
-5.510000e+00 -2.725264e-10
-5.500000e+00 -2.768526e-10
-5.490000e+00 -2.812254e-10
-5.480000e+00 -2.856491e-10
-5.470000e+00 -2.901288e-10
-5.460000e+00 -2.946696e-10
-5.450000e+00 -2.992775e-10
-5.440000e+00 -3.039580e-10
-5.430000e+00 -3.087168e-10
-5.420000e+00 -3.135592e-10
-5.410000e+00 -3.184899e-10
-5.400000e+00 -3.235132e-10
-5.390000e+00 -3.286322e-10
-5.380000e+00 -3.338494e-10
-5.370000e+00 -3.391663e-10
-5.360000e+00 -3.445831e-10
-5.350000e+00 -3.500991e-10
-5.340000e+00 -3.557126e-10
-5.330000e+00 -3.614210e-10
-5.320000e+00 -3.672209e-10
-5.310000e+00 -3.731080e-10
-5.300000e+00 -3.790780e-10
-5.290000e+00 -3.851258e-10
-5.280000e+00 -3.912465e-10
-5.270000e+00 -3.974355e-10
-5.260000e+00 -4.036882e-10
-5.250000e+00 -4.100011e-10
-5.240000e+00 -4.163711e-10
-5.230000e+00 -4.227963e-10
-5.220000e+00 -4.292758e-10
-5.210000e+00 -4.358100e-10
-5.200000e+00 -4.424006e-10
-5.190000e+00 -4.490507e-10
-5.180000e+00 -4.557644e-10
-5.170000e+00 -4.625473e-10
-5.160000e+00 -4.694060e-10
-5.150000e+00 -4.763480e-10
-5.140000e+00 -4.833814e-10
-5.130000e+00 -4.905152e-10
-5.120000e+00 -4.977583e-10
-5.110000e+00 -5.051196e-10
-5.100000e+00 -5.126080e-10
-5.090000e+00 -5.202317e-10
-5.080000e+00 -5.279980e-10
-5.070000e+00 -5.359135e-10
-5.060000e+00 -5.439835e-10
-5.050000e+00 -5.522117e-10
-5.040000e+00 -5.606008e-10
-5.030000e+00 -5.691516e-10
-5.020000e+00 -5.778638e-10
-5.010000e+00 -5.867350e-10
-5.000000e+00 -5.957620e-10
-4.990000e+00 -6.049402e-10
-4.980000e+00 -6.142638e-10
-4.970000e+00 -6.237262e-10
-4.960000e+00 -6.333206e-10
-4.950000e+00 -6.430393e-10
-4.940000e+00 -6.528751e-10
-4.930000e+00 -6.628208e-10
-4.920000e+00 -6.728699e-10
-4.910000e+00 -6.830166e-10
-4.900000e+00 -6.932563e-10
-4.890000e+00 -7.035856e-10
-4.880000e+00 -7.140025e-10
-4.870000e+00 -7.245067e-10
-4.860000e+00 -7.350990e-10
-4.850000e+00 -7.457825e-10
-4.840000e+00 -7.565613e-10
-4.830000e+00 -7.674411e-10
-4.820000e+00 -7.784288e-10
-4.810000e+00 -7.895326e-10
-4.800000e+00 -8.007612e-10
-4.790000e+00 -8.121241e-10
-4.780000e+00 -8.236312e-10
-4.770000e+00 -8.352921e-10
-4.760000e+00 -8.471162e-10
-4.750000e+00 -8.591124e-10
-4.740000e+00 -8.712888e-10
-4.730000e+00 -8.836524e-10
-4.720000e+00 -8.962089e-10
-4.710000e+00 -9.089630e-10
-4.700000e+00 -9.219173e-10
-4.690000e+00 -9.350735e-10
-4.680000e+00 -9.484314e-10
-4.670000e+00 -9.619899e-10
-4.660000e+00 -9.757463e-10
-4.650000e+00 -9.896969e-10
-4.640000e+00 -1.003837e-09
-4.630000e+00 -1.018162e-09
-4.620000e+00 -1.032667e-09
-4.610000e+00 -1.047345e-09
-4.600000e+00 -1.062192e-09
-4.590000e+00 -1.077203e-09
-4.580000e+00 -1.092375e-09
-4.570000e+00 -1.107704e-09
-4.560000e+00 -1.123189e-09
-4.550000e+00 -1.138830e-09
-4.540000e+00 -1.154628e-09
-4.530000e+00 -1.170587e-09
-4.520000e+00 -1.186711e-09
-4.510000e+00 -1.203005e-09
-4.500000e+00 -1.219477e-09
-4.490000e+00 -1.236136e-09
-4.480000e+00 -1.252990e-09
-4.470000e+00 -1.270049e-09
-4.460000e+00 -1.287324e-09
-4.450000e+00 -1.304825e-09
-4.440000e+00 -1.322562e-09
-4.430000e+00 -1.340544e-09
-4.420000e+00 -1.358781e-09
-4.410000e+00 -1.377280e-09
-4.400000e+00 -1.396047e-09
-4.390000e+00 -1.415086e-09
-4.380000e+00 -1.434402e-09
-4.370000e+00 -1.453995e-09
-4.360000e+00 -1.473865e-09
-4.350000e+00 -1.494010e-09
-4.340000e+00 -1.514426e-09
-4.330000e+00 -1.535109e-09
-4.320000e+00 -1.556052e-09
-4.310000e+00 -1.577249e-09
-4.300000e+00 -1.598692e-09
-4.290000e+00 -1.620374e-09
-4.280000e+00 -1.642286e-09
-4.270000e+00 -1.664422e-09
-4.260000e+00 -1.686776e-09
-4.250000e+00 -1.709341e-09
-4.240000e+00 -1.732115e-09
-4.230000e+00 -1.755094e-09
-4.220000e+00 -1.778277e-09
-4.210000e+00 -1.801667e-09
-4.200000e+00 -1.825266e-09
-4.190000e+00 -1.849079e-09
-4.180000e+00 -1.873113e-09
-4.170000e+00 -1.897376e-09
-4.160000e+00 -1.921879e-09
-4.150000e+00 -1.946632e-09
-4.140000e+00 -1.971648e-09
-4.130000e+00 -1.996939e-09
-4.120000e+00 -2.022518e-09
-4.110000e+00 -2.048399e-09
-4.100000e+00 -2.074593e-09
-4.090000e+00 -2.101114e-09
-4.080000e+00 -2.127970e-09
-4.070000e+00 -2.155171e-09
-4.060000e+00 -2.182726e-09
-4.050000e+00 -2.210640e-09
-4.040000e+00 -2.238917e-09
-4.030000e+00 -2.267560e-09
-4.020000e+00 -2.296569e-09
-4.010000e+00 -2.325943e-09
-4.000000e+00 -2.355679e-09
-3.990000e+00 -2.385773e-09
-3.980000e+00 -2.416219e-09
-3.970000e+00 -2.447013e-09
-3.960000e+00 -2.478146e-09
-3.950000e+00 -2.509612e-09
-3.940001e+00 -2.541404e-09
-3.930000e+00 -2.573517e-09
-3.920000e+00 -2.605945e-09
-3.910000e+00 -2.638683e-09
-3.900001e+00 -2.671730e-09
-3.890000e+00 -2.705083e-09
-3.880000e+00 -2.738745e-09
-3.870000e+00 -2.772715e-09
-3.860001e+00 -2.806997e-09
-3.850000e+00 -2.841599e-09
-3.840000e+00 -2.876526e-09
-3.830000e+00 -2.911787e-09
-3.820001e+00 -2.947392e-09
-3.810000e+00 -2.983350e-09
-3.800000e+00 -3.019673e-09
-3.790000e+00 -3.056372e-09
-3.780000e+00 -3.093458e-09
-3.770000e+00 -3.130942e-09
-3.760000e+00 -3.168834e-09
-3.750000e+00 -3.207143e-09
-3.740000e+00 -3.245876e-09
-3.730000e+00 -3.285041e-09
-3.720000e+00 -3.324642e-09
-3.710000e+00 -3.364682e-09
-3.700000e+00 -3.405164e-09
-3.690001e+00 -3.446087e-09
-3.680000e+00 -3.487449e-09
-3.670000e+00 -3.529249e-09
-3.660000e+00 -3.571483e-09
-3.650001e+00 -3.614145e-09
-3.640000e+00 -3.657232e-09
-3.630000e+00 -3.700737e-09
-3.620000e+00 -3.744656e-09
-3.610001e+00 -3.788984e-09
-3.600000e+00 -3.833716e-09
-3.590000e+00 -3.878851e-09
-3.580000e+00 -3.924386e-09
-3.570001e+00 -3.970320e-09
-3.560000e+00 -4.016656e-09
-3.550000e+00 -4.063396e-09
-3.540000e+00 -4.110544e-09
-3.530000e+00 -4.158109e-09
-3.520000e+00 -4.206096e-09
-3.510000e+00 -4.254515e-09
-3.500000e+00 -4.303378e-09
-3.490000e+00 -4.352694e-09
-3.480000e+00 -4.402476e-09
-3.470000e+00 -4.452736e-09
-3.460000e+00 -4.503485e-09
-3.450000e+00 -4.554736e-09
-3.440001e+00 -4.606500e-09
-3.430000e+00 -4.658786e-09
-3.420000e+00 -4.711603e-09
-3.410000e+00 -4.764958e-09
-3.400001e+00 -4.818856e-09
-3.390000e+00 -4.873302e-09
-3.380000e+00 -4.928298e-09
-3.370000e+00 -4.983842e-09
-3.360001e+00 -5.039935e-09
-3.350000e+00 -5.096572e-09
-3.340000e+00 -5.153750e-09
-3.330000e+00 -5.211463e-09
-3.320001e+00 -5.269704e-09
-3.310000e+00 -5.328469e-09
-3.300000e+00 -5.387748e-09
-3.290000e+00 -5.447538e-09
-3.280000e+00 -5.507831e-09
-3.270000e+00 -5.568622e-09
-3.260000e+00 -5.629909e-09
-3.250000e+00 -5.691690e-09
-3.240000e+00 -5.753961e-09
-3.230000e+00 -5.816727e-09
-3.220000e+00 -5.879988e-09
-3.210000e+00 -5.943752e-09
-3.200000e+00 -6.008023e-09
-3.190001e+00 -6.072809e-09
-3.180000e+00 -6.138121e-09
-3.170000e+00 -6.203968e-09
-3.160000e+00 -6.270363e-09
-3.150001e+00 -6.337316e-09
-3.140000e+00 -6.404841e-09
-3.130000e+00 -6.472949e-09
-3.120000e+00 -6.541651e-09
-3.110001e+00 -6.610958e-09
-3.100000e+00 -6.680880e-09
-3.090000e+00 -6.751424e-09
-3.080000e+00 -6.822597e-09
-3.070001e+00 -6.894404e-09
-3.060000e+00 -6.966847e-09
-3.050000e+00 -7.039928e-09
-3.040000e+00 -7.113646e-09
-3.030000e+00 -7.187998e-09
-3.020000e+00 -7.262981e-09
-3.010000e+00 -7.338590e-09
-3.000000e+00 -7.414818e-09
-2.990000e+00 -7.491659e-09
-2.980000e+00 -7.569106e-09
-2.970000e+00 -7.647153e-09
-2.960000e+00 -7.725794e-09
-2.950000e+00 -7.805022e-09
-2.940001e+00 -7.884833e-09
-2.930000e+00 -7.965226e-09
-2.920000e+00 -8.046197e-09
-2.910000e+00 -8.127750e-09
-2.900001e+00 -8.209883e-09
-2.890000e+00 -8.292602e-09
-2.880000e+00 -8.375914e-09
-2.870000e+00 -8.459826e-09
-2.860001e+00 -8.544346e-09
-2.850000e+00 -8.629486e-09
-2.840000e+00 -8.715258e-09
-2.830000e+00 -8.801672e-09
-2.820001e+00 -8.888745e-09
-2.810000e+00 -8.976485e-09
-2.800000e+00 -9.064906e-09
-2.790000e+00 -9.154019e-09
-2.780000e+00 -9.243833e-09
-2.770000e+00 -9.334358e-09
-2.760000e+00 -9.425601e-09
-2.750000e+00 -9.517565e-09
-2.740000e+00 -9.610255e-09
-2.730000e+00 -9.703671e-09
-2.720000e+00 -9.797811e-09
-2.710000e+00 -9.892672e-09
-2.700000e+00 -9.988248e-09
-2.690001e+00 -1.008453e-08
-2.680000e+00 -1.018152e-08
-2.670000e+00 -1.027920e-08
-2.660000e+00 -1.037756e-08
-2.650001e+00 -1.047659e-08
-2.640000e+00 -1.057628e-08
-2.630000e+00 -1.067663e-08
-2.620000e+00 -1.077762e-08
-2.610001e+00 -1.087925e-08
-2.600000e+00 -1.098151e-08
-2.590000e+00 -1.108439e-08
-2.580000e+00 -1.118791e-08
-2.570001e+00 -1.129205e-08
-2.560000e+00 -1.139682e-08
-2.550000e+00 -1.150222e-08
-2.540000e+00 -1.160826e-08
-2.530001e+00 -1.171495e-08
-2.520000e+00 -1.182230e-08
-2.510000e+00 -1.193031e-08
-2.500000e+00 -1.203901e-08
-2.490000e+00 -1.214840e-08
-2.480000e+00 -1.225849e-08
-2.470000e+00 -1.236930e-08
-2.460000e+00 -1.248084e-08
-2.450000e+00 -1.259311e-08
-2.440001e+00 -1.270613e-08
-2.430000e+00 -1.281989e-08
-2.420000e+00 -1.293442e-08
-2.410000e+00 -1.304970e-08
-2.400001e+00 -1.316574e-08
-2.390000e+00 -1.328254e-08
-2.380000e+00 -1.340009e-08
-2.370000e+00 -1.351839e-08
-2.360001e+00 -1.363743e-08
-2.350000e+00 -1.375720e-08
-2.340000e+00 -1.387769e-08
-2.330000e+00 -1.399889e-08
-2.320001e+00 -1.412080e-08
-2.310000e+00 -1.424339e-08
-2.300000e+00 -1.436665e-08
-2.290000e+00 -1.449059e-08
-2.280001e+00 -1.461519e-08
-2.270000e+00 -1.474044e-08
-2.260000e+00 -1.486634e-08
-2.250000e+00 -1.499289e-08
-2.240000e+00 -1.512009e-08
-2.230000e+00 -1.524793e-08
-2.220000e+00 -1.537642e-08
-2.210000e+00 -1.550556e-08
-2.200000e+00 -1.563537e-08
-2.190001e+00 -1.576583e-08
-2.180000e+00 -1.589698e-08
-2.170000e+00 -1.602881e-08
-2.160000e+00 -1.616134e-08
-2.150001e+00 -1.629457e-08
-2.140000e+00 -1.642852e-08
-2.130000e+00 -1.656319e-08
-2.120000e+00 -1.669858e-08
-2.110001e+00 -1.683471e-08
-2.100000e+00 -1.697158e-08
-2.090000e+00 -1.710918e-08
-2.080000e+00 -1.724752e-08
-2.070001e+00 -1.738658e-08
-2.060000e+00 -1.752638e-08
-2.050000e+00 -1.766689e-08
-2.040000e+00 -1.780812e-08
-2.030001e+00 -1.795004e-08
-2.020000e+00 -1.809264e-08
-2.010000e+00 -1.823592e-08
-2.000000e+00 -1.837985e-08
-1.990000e+00 -1.852442e-08
-1.980000e+00 -1.866962e-08
-1.970000e+00 -1.881544e-08
-1.960000e+00 -1.896186e-08
-1.950000e+00 -1.910886e-08
-1.940001e+00 -1.925645e-08
-1.930000e+00 -1.940460e-08
-1.920000e+00 -1.955333e-08
-1.910000e+00 -1.970261e-08
-1.900001e+00 -1.985246e-08
-1.890000e+00 -2.000287e-08
-1.880000e+00 -2.015384e-08
-1.870000e+00 -2.030539e-08
-1.860001e+00 -2.045750e-08
-1.850000e+00 -2.061020e-08
-1.840000e+00 -2.076349e-08
-1.830000e+00 -2.091737e-08
-1.820001e+00 -2.107186e-08
-1.810000e+00 -2.122697e-08
-1.800000e+00 -2.138269e-08
-1.790000e+00 -2.153904e-08
-1.780001e+00 -2.169601e-08
-1.770000e+00 -2.185362e-08
-1.760000e+00 -2.201185e-08
-1.750000e+00 -2.217072e-08
-1.740000e+00 -2.233020e-08
-1.730000e+00 -2.249030e-08
-1.720000e+00 -2.265100e-08
-1.710000e+00 -2.281230e-08
-1.700000e+00 -2.297418e-08
-1.690001e+00 -2.313663e-08
-1.680000e+00 -2.329962e-08
-1.670000e+00 -2.346315e-08
-1.660000e+00 -2.362720e-08
-1.650001e+00 -2.379174e-08
-1.640000e+00 -2.395676e-08
-1.630000e+00 -2.412225e-08
-1.620000e+00 -2.428819e-08
-1.610001e+00 -2.445456e-08
-1.600000e+00 -2.462136e-08
-1.590000e+00 -2.478857e-08
-1.580000e+00 -2.495620e-08
-1.570001e+00 -2.512421e-08
-1.560000e+00 -2.529263e-08
-1.550000e+00 -2.546144e-08
-1.540000e+00 -2.563065e-08
-1.530001e+00 -2.580024e-08
-1.520000e+00 -2.597024e-08
-1.510000e+00 -2.614063e-08
-1.500000e+00 -2.631142e-08
-1.490000e+00 -2.648261e-08
-1.480000e+00 -2.665420e-08
-1.470000e+00 -2.682620e-08
-1.460000e+00 -2.699861e-08
-1.450000e+00 -2.717142e-08
-1.440001e+00 -2.734463e-08
-1.430000e+00 -2.751824e-08
-1.420000e+00 -2.769224e-08
-1.410000e+00 -2.786662e-08
-1.400001e+00 -2.804137e-08
-1.390000e+00 -2.821647e-08
-1.380000e+00 -2.839191e-08
-1.370000e+00 -2.856768e-08
-1.360001e+00 -2.874375e-08
-1.350000e+00 -2.892012e-08
-1.340000e+00 -2.909674e-08
-1.330000e+00 -2.927363e-08
-1.320001e+00 -2.945073e-08
-1.310000e+00 -2.962805e-08
-1.300000e+00 -2.980556e-08
-1.290000e+00 -2.998325e-08
-1.280001e+00 -3.016109e-08
-1.270000e+00 -3.033909e-08
-1.260000e+00 -3.051721e-08
-1.250000e+00 -3.069546e-08
-1.240000e+00 -3.087382e-08