-1.200000e+01 0.000000e+00
-1.199000e+01 0.000000e+00
-1.198000e+01 0.000000e+00
-1.197000e+01 0.000000e+00
-1.196000e+01 0.000000e+00
-1.195000e+01 0.000000e+00
-1.194000e+01 2.802597e-45
-1.193000e+01 -1.488954e-36
-1.192000e+01 -2.422633e-35
-1.191000e+01 -2.108952e-34
-1.190000e+01 -1.303049e-33
-1.189000e+01 -6.400407e-33
-1.188000e+01 -2.655607e-32
-1.187000e+01 -9.662572e-32
-1.186000e+01 -3.161842e-31
-1.185000e+01 -9.473725e-31
-1.184000e+01 -2.634271e-30
-1.183000e+01 -6.868282e-30
-1.182000e+01 -1.692909e-29
-1.181000e+01 -3.970851e-29
-1.180000e+01 -8.911576e-29
-1.179000e+01 -1.922257e-28
-1.178000e+01 -4.000491e-28
-1.177000e+01 -8.058899e-28
-1.176000e+01 -1.575862e-27
-1.175000e+01 -2.998469e-27
-1.174000e+01 -5.563466e-27
-1.173000e+01 -1.008488e-26
-1.172000e+01 -1.788945e-26
-1.171000e+01 -3.110037e-26
-1.170000e+01 -5.305789e-26
-1.169000e+01 -8.893344e-26
-1.168000e+01 -1.466138e-25
-1.167000e+01 -2.379570e-25
-1.166000e+01 -3.805544e-25
-1.165000e+01 -6.001723e-25
-1.164000e+01 -9.340975e-25
-1.163000e+01 -1.435670e-24
-1.162000e+01 -2.180362e-24
-1.161000e+01 -3.273844e-24
-1.160000e+01 -4.862587e-24
-1.159000e+01 -7.147664e-24
-1.158000e+01 -1.040256e-23
-1.157000e+01 -1.499591e-23
-1.156000e+01 -2.142041e-23
-1.155000e+01 -3.032896e-23
-1.154000e+01 -4.257996e-23
-1.153000e+01 -5.929303e-23
-1.152000e+01 -8.191754e-23
-1.151000e+01 -1.123158e-22
-1.150000e+01 -1.528635e-22
-1.149000e+01 -2.065702e-22
-1.148000e+01 -2.772215e-22
-1.147000e+01 -3.695482e-22
-1.146000e+01 -4.894222e-22
-1.145000e+01 -6.440850e-22
-1.144000e+01 -8.424097e-22
-1.143000e+01 -1.095200e-21
-1.142000e+01 -1.415529e-21
-1.141000e+01 -1.819116e-21
-1.140000e+01 -2.324748e-21
-1.139000e+01 -2.954739e-21
-1.138000e+01 -3.735434e-21
-1.137000e+01 -4.697744e-21
-1.136000e+01 -5.877717e-21
-1.135000e+01 -7.317132e-21
-1.134000e+01 -9.064112e-21
-1.133000e+01 -1.117374e-20
-1.132000e+01 -1.370864e-20
-1.131000e+01 -1.673960e-20
-1.130000e+01 -2.034604e-20
-1.129000e+01 -2.461647e-20
-1.128000e+01 -2.964884e-20
-1.127000e+01 -3.555075e-20
-1.126000e+01 -4.243939e-20
-1.125000e+01 -5.044143e-20
-1.124000e+01 -5.969251e-20
-1.123000e+01 -7.033649e-20
-1.122000e+01 -8.252431e-20
-1.121000e+01 -9.641246e-20
-1.120000e+01 -1.121611e-19
-1.119000e+01 -1.299313e-19
-1.118000e+01 -1.498824e-19
-1.117000e+01 -1.721683e-19
-1.116000e+01 -1.969330e-19
-1.115000e+01 -2.243062e-19
-1.114000e+01 -2.543976e-19
-1.113000e+01 -2.872908e-19
-1.112000e+01 -3.230367e-19
-1.111000e+01 -3.616461e-19
-1.110000e+01 -4.030823e-19
-1.109000e+01 -4.472524e-19
-1.108000e+01 -4.939991e-19
-1.107000e+01 -5.430920e-19
-1.106000e+01 -5.942190e-19
-1.105000e+01 -6.469775e-19
-1.104000e+01 -7.008664e-19
-1.103000e+01 -7.552791e-19
-1.102000e+01 -8.094965e-19
-1.101000e+01 -8.626817e-19
-1.100000e+01 -9.138765e-19
-1.099000e+01 -9.619994e-19
-1.098000e+01 -1.005846e-18
-1.097000e+01 -1.044092e-18
-1.096000e+01 -1.075297e-18
-1.095000e+01 -1.097918e-18
-1.094000e+01 -1.110317e-18
-1.093000e+01 -1.110780e-18
-1.092000e+01 -1.097534e-18
-1.091000e+01 -1.068776e-18
-1.090000e+01 -1.022696e-18
-1.089000e+01 -9.575125e-19
-1.088000e+01 -8.715092e-19
-1.087000e+01 -7.630727e-19
-1.086000e+01 -6.307376e-19
-1.085000e+01 -4.732333e-19
-1.084000e+01 -2.895323e-19
-1.083000e+01 -7.890162e-20
-1.082000e+01 1.590462e-19
-1.081000e+01 4.243011e-19
-1.080000e+01 7.164055e-19
-1.079000e+01 1.034406e-18
-1.078000e+01 1.376810e-18
-1.077000e+01 1.741546e-18
-1.076000e+01 2.125928e-18
-1.075000e+01 2.526637e-18
-1.074000e+01 2.939699e-18
-1.073000e+01 3.360484e-18
-1.072000e+01 3.783710e-18
-1.071000e+01 4.203467e-18
-1.070000e+01 4.613248e-18
-1.069000e+01 5.005999e-18
-1.068000e+01 5.374186e-18
-1.067000e+01 5.709871e-18
-1.066000e+01 6.004813e-18
-1.065000e+01 6.250577e-18
-1.064000e+01 6.438659e-18
-1.063000e+01 6.560629e-18
-1.062000e+01 6.608274e-18
-1.061000e+01 6.573768e-18
-1.060000e+01 6.449827e-18
-1.059000e+01 6.229891e-18
-1.058000e+01 5.908285e-18
-1.057000e+01 5.480395e-18
-1.056000e+01 4.942825e-18
-1.055000e+01 4.293549e-18
-1.054000e+01 3.532042e-18
-1.053000e+01 2.659402e-18
-1.052000e+01 1.678438e-18
-1.051000e+01 5.937318e-19
-1.050000e+01 -5.883218e-19
-1.049000e+01 -1.859522e-18
-1.048000e+01 -3.209896e-18
-1.047000e+01 -4.627777e-18
-1.046000e+01 -6.099920e-18
-1.045000e+01 -7.611656e-18
-1.044000e+01 -9.147084e-18
-1.043000e+01 -1.068930e-17
-1.042000e+01 -1.222068e-17
-1.041000e+01 -1.372312e-17
-1.040000e+01 -1.517843e-17
-1.039000e+01 -1.656857e-17
-1.038000e+01 -1.787606e-17
-1.037000e+01 -1.908431e-17
-1.036000e+01 -2.017790e-17
-1.035000e+01 -2.114291e-17
-1.034000e+01 -2.196721e-17
-1.033000e+01 -2.264066e-17
-1.032000e+01 -2.315531e-17
-1.031000e+01 -2.350548e-17
-1.030000e+01 -2.368781e-17
-1.029000e+01 -2.370122e-17
-1.028000e+01 -2.354678e-17
-1.027000e+01 -2.322744e-17
-1.026000e+01 -2.274777e-17
-1.025000e+01 -2.211350e-17
-1.024000e+01 -2.133102e-17
-1.023000e+01 -2.040679e-17
-1.022000e+01 -1.934668e-17
-1.021000e+01 -1.815524e-17
-1.020000e+01 -1.683495e-17
-1.019000e+01 -1.538542e-17
-1.018000e+01 -1.380262e-17
-1.017000e+01 -1.207817e-17
-1.016000e+01 -1.019859e-17
-1.015000e+01 -8.144823e-18
-1.014000e+01 -5.891725e-18
-1.013000e+01 -3.407826e-18
-1.012000e+01 -6.552610e-19
-1.011000e+01 2.410042e-18
-1.010000e+01 5.837915e-18
-1.009000e+01 9.683185e-18
-1.008000e+01 1.400459e-17
-1.007000e+01 1.886335e-17
-1.006000e+01 2.432137e-17
-1.005000e+01 3.043909e-17
-1.004000e+01 3.727298e-17
-1.003000e+01 4.487269e-17
-1.002000e+01 5.327793e-17
-1.001000e+01 6.251499e-17
-1.000000e+01 7.259319e-17
-9.990000e+00 8.350106e-17
-9.980000e+00 9.520250e-17
-9.970000e+00 1.076330e-16
-9.960000e+00 1.206959e-16
-9.950000e+00 1.342591e-16
-9.940001e+00 1.481519e-16
-9.930000e+00 1.621624e-16
-9.920000e+00 1.760357e-16
-9.910000e+00 1.894729e-16
-9.900000e+00 2.021305e-16
-9.890000e+00 2.136218e-16
-9.880000e+00 2.235183e-16
-9.870000e+00 2.313536e-16
-9.860001e+00 2.366279e-16
-9.850000e+00 2.388139e-16
-9.840000e+00 2.373650e-16
-9.830000e+00 2.317240e-16
-9.820000e+00 2.213342e-16
-9.809999e+00 2.056517e-16
-9.800000e+00 1.841584e-16
-9.790000e+00 1.563778e-16
-9.780000e+00 1.218901e-16
-9.770000e+00 8.034947e-17
-9.760000e+00 3.150154e-17
-9.750000e+00 -2.479910e-17
-9.740000e+00 -8.857114e-17
-9.730000e+00 -1.596893e-16
-9.720000e+00 -2.378678e-16
-9.710000e+00 -3.226458e-16
-9.700000e+00 -4.133737e-16
-9.690001e+00 -5.092022e-16
-9.680000e+00 -6.090745e-16
-9.670000e+00 -7.117210e-16
-9.660000e+00 -8.156586e-16
-9.650000e+00 -9.191934e-16
-9.640000e+00 -1.020428e-15
-9.630000e+00 -1.117277e-15
-9.620000e+00 -1.207480e-15
-9.610001e+00 -1.288628e-15
-9.600000e+00 -1.358193e-15
-9.590000e+00 -1.413562e-15
-9.580000e+00 -1.452076e-15
-9.570000e+00 -1.471076e-15
-9.559999e+00 -1.467954e-15
-9.550000e+00 -1.440205e-15
-9.540000e+00 -1.385492e-15
-9.530000e+00 -1.301700e-15
-9.520000e+00 -1.187003e-15
-9.510000e+00 -1.039931e-15
-9.500000e+00 -8.594326e-16
-9.490000e+00 -6.449368e-16
-9.480000e+00 -3.964172e-16
-9.470000e+00 -1.144470e-16
-9.460000e+00 1.997500e-16
-9.450000e+00 5.442553e-16
-9.440001e+00 9.164204e-16
-9.430000e+00 1.312842e-15
-9.420000e+00 1.729349e-15
-9.410000e+00 2.161000e-15
-9.400000e+00 2.602103e-15
-9.390000e+00 3.046235e-15
-9.380000e+00 3.486295e-15
-9.370000e+00 3.914563e-15
-9.360001e+00 4.322781e-15
-9.350000e+00 4.702243e-15
-9.340000e+00 5.043913e-15
-9.330000e+00 5.338555e-15
-9.320000e+00 5.576870e-15
-9.309999e+00 5.749661e-15
-9.300000e+00 5.847999e-15
-9.290000e+00 5.863405e-15
-9.280000e+00 5.788032e-15
-9.270000e+00 5.614867e-15
-9.260000e+00 5.337911e-15
-9.250000e+00 4.952384e-15
-9.240000e+00 4.454899e-15
-9.230000e+00 3.843647e-15
-9.220000e+00 3.118556e-15
-9.210000e+00 2.281435e-15
-9.200000e+00 1.336102e-15
-9.190001e+00 2.884807e-16
-9.180000e+00 -8.533332e-16
-9.170000e+00 -2.079031e-15
-9.160000e+00 -3.376093e-15
-9.150000e+00 -4.729824e-15
-9.140000e+00 -6.123437e-15
-9.130000e+00 -7.538171e-15
-9.120000e+00 -8.953453e-15
-9.110001e+00 -1.034711e-14
-9.100000e+00 -1.169564e-14
-9.090000e+00 -1.297445e-14
-9.080000e+00 -1.415826e-14
-9.070000e+00 -1.522142e-14
-9.060000e+00 -1.613835e-14
-9.050000e+00 -1.688392e-14
-9.040000e+00 -1.743397e-14
-9.030000e+00 -1.776570e-14
-9.020000e+00 -1.785822e-14
-9.010000e+00 -1.769298e-14
-9.000000e+00 -1.725423e-14
-8.990000e+00 -1.652951e-14
-8.980000e+00 -1.551003e-14
-8.970000e+00 -1.419110e-14
-8.960000e+00 -1.257244e-14
-8.950000e+00 -1.065849e-14
-8.940001e+00 -8.458646e-15
-8.930000e+00 -5.987394e-15
-8.920000e+00 -3.264417e-15
-8.910000e+00 -3.145834e-16
-8.900000e+00 2.832138e-15
-8.890000e+00 6.140858e-15
-8.880000e+00 9.572040e-15
-8.870000e+00 1.308187e-14
-8.860001e+00 1.662273e-14
-8.850000e+00 2.014371e-14
-8.840000e+00 2.359132e-14
-8.830000e+00 2.691016e-14
-8.820000e+00 3.004370e-14
-8.810000e+00 3.293520e-14
-8.800000e+00 3.552856e-14
-8.790000e+00 3.776929e-14
-8.780000e+00 3.960548e-14
-8.770000e+00 4.098873e-14
-8.760000e+00 4.187520e-14
-8.750000e+00 4.222649e-14
-8.740000e+00 4.201054e-14
-8.730000e+00 4.120245e-14
-8.720000e+00 3.978528e-14
-8.710000e+00 3.775065e-14
-8.700000e+00 3.509927e-14
-8.690001e+00 3.184143e-14
-8.680000e+00 2.799714e-14
-8.670000e+00 2.359635e-14
-8.660000e+00 1.867883e-14
-8.650000e+00 1.329397e-14
-8.640000e+00 7.500358e-15
-8.630000e+00 1.365219e-15
-8.620000e+00 -5.036332e-15
-8.610001e+00 -1.162222e-14
-8.600000e+00 -1.830449e-14
-8.590000e+00 -2.499051e-14
-8.580000e+00 -3.158435e-14
-8.570000e+00 -3.798824e-14
-8.560000e+00 -4.410411e-14
-8.550000e+00 -4.983523e-14
-8.540000e+00 -5.508790e-14
-8.530000e+00 -5.977303e-14
-8.520000e+00 -6.380789e-14
-8.510000e+00 -6.711768e-14
-8.500000e+00 -6.963698e-14
-8.490000e+00 -7.131125e-14
-8.480000e+00 -7.209804e-14
-8.470000e+00 -7.196807e-14
-8.460000e+00 -7.090609e-14
-8.450000e+00 -6.891159e-14
-8.440001e+00 -6.599916e-14
-8.430000e+00 -6.219867e-14
-8.420000e+00 -5.755510e-14
-8.410000e+00 -5.212812e-14
-8.400000e+00 -4.599142e-14
-8.390000e+00 -3.923170e-14
-8.380000e+00 -3.194735e-14
-8.370000e+00 -2.424697e-14
-8.360001e+00 -1.624758e-14
-8.350000e+00 -8.072579e-15
-8.340000e+00 1.503932e-16
-8.330000e+00 8.291830e-15
-8.320000e+00 1.622280e-14
-8.310000e+00 2.381747e-14
-8.300000e+00 3.095564e-14
-8.290000e+00 3.752529e-14
-8.280000e+00 4.342494e-14
-8.270000e+00 4.856603e-14
-8.260000e+00 5.287499e-14
-8.250000e+00 5.629510e-14
-8.240000e+00 5.878815e-14
-8.230000e+00 6.033563e-14
-8.220000e+00 6.093971e-14
-8.210000e+00 6.062369e-14
-8.200000e+00 5.943211e-14
-8.190001e+00 5.743036e-14
-8.180000e+00 5.470385e-14
-8.170000e+00 5.135675e-14
-8.160000e+00 4.751022e-14
-8.150000e+00 4.330025e-14
-8.140000e+00 3.887505e-14
-8.130000e+00 3.439210e-14
-8.120000e+00 3.001482e-14
-8.110001e+00 2.590901e-14
-8.100000e+00 2.223904e-14
-8.090000e+00 1.916390e-14
-8.080000e+00 1.683318e-14
-8.070000e+00 1.538303e-14
-8.060000e+00 1.493224e-14
-8.050000e+00 1.557850e-14
-8.040000e+00 1.739485e-14
-8.030000e+00 2.042656e-14
-8.020000e+00 2.468842e-14
-8.010000e+00 3.016244e-14
-8.000000e+00 3.679626e-14
-7.990000e+00 4.450212e-14
-7.980000e+00 5.315650e-14
-7.970000e+00 6.260056e-14
-7.960000e+00 7.264122e-14
-7.950000e+00 8.305319e-14
-7.940000e+00 9.358156e-14
-7.930000e+00 1.039453e-13
-7.920000e+00 1.138415e-13
-7.910000e+00 1.229500e-13
-7.900000e+00 1.309391e-13
-7.890000e+00 1.374715e-13
-7.880000e+00 1.422107e-13
-7.870000e+00 1.448276e-13
-7.860000e+00 1.450081e-13
-7.850000e+00 1.424594e-13
-7.840000e+00 1.369178e-13
-7.830000e+00 1.281552e-13
-7.820000e+00 1.159858e-13
-7.810000e+00 1.002723e-13
-7.800000e+00 8.093144e-14
-7.790000e+00 5.793869e-14
-7.780000e+00 3.133250e-14
-7.770000e+00 1.217209e-15
-7.760000e+00 -3.223496e-14
-7.750000e+00 -6.878303e-14
-7.740000e+00 -1.081175e-13
-7.730000e+00 -1.498622e-13
-7.720000e+00 -1.935767e-13
-7.710000e+00 -2.387606e-13
-7.700000e+00 -2.848591e-13
-7.690000e+00 -3.312688e-13
-7.680000e+00 -3.773460e-13
-7.670000e+00 -4.224146e-13
-7.660000e+00 -4.657760e-13
-7.650000e+00 -5.067190e-13
-7.640000e+00 -5.445305e-13
-7.630000e+00 -5.785065e-13
-7.620000e+00 -6.079637e-13
-7.610000e+00 -6.322505e-13
-7.600000e+00 -6.507577e-13
-7.590000e+00 -6.629298e-13
-7.580000e+00 -6.682744e-13
-7.570000e+00 -6.663714e-13
-7.560000e+00 -6.568813e-13
-7.550000e+00 -6.395519e-13
-7.540000e+00 -6.142238e-13
-7.530000e+00 -5.808344e-13
-7.520000e+00 -5.394208e-13
-7.510000e+00 -4.901199e-13
-7.500000e+00 -4.331679e-13
-7.490000e+00 -3.688981e-13
-7.480000e+00 -2.977358e-13
-7.470000e+00 -2.201930e-13
-7.460000e+00 -1.368610e-13
-7.450000e+00 -4.840149e-14
-7.440000e+00 4.446311e-14
-7.430000e+00 1.409607e-13
-7.420000e+00 2.402809e-13
-7.410000e+00 3.415875e-13
-7.400000e+00 4.440305e-13
-7.390000e+00 5.467585e-13
-7.380000e+00 6.489306e-13
-7.370000e+00 7.497277e-13
-7.360000e+00 8.483630e-13
-7.350000e+00 9.440909e-13
-7.340000e+00 1.036215e-12
-7.330000e+00 1.124094e-12
-7.320000e+00 1.207146e-12
-7.310000e+00 1.284851e-12
-7.300000e+00 1.356751e-12
-7.290000e+00 1.422447e-12
-7.280000e+00 1.481596e-12
-7.270000e+00 1.533906e-12
-7.260000e+00 1.579124e-12
-7.250000e+00 1.617029e-12
-7.240000e+00 1.647421e-12
-7.230000e+00 1.670107e-12
-7.220000e+00 1.684887e-12
-7.210000e+00 1.691540e-12
-7.200000e+00 1.689813e-12
-7.190000e+00 1.679401e-12
-7.180000e+00 1.659940e-12
-7.170000e+00 1.630993e-12
-7.160000e+00 1.592041e-12
-7.150000e+00 1.542474e-12
-7.140000e+00 1.481592e-12
-7.130000e+00 1.408598e-12
-7.120000e+00 1.322604e-12
-7.110000e+00 1.222640e-12
-7.100000e+00 1.107661e-12
-7.090000e+00 9.765666e-13
-7.080000e+00 8.282219e-13
-7.070000e+00 6.614813e-13
-7.060000e+00 4.752200e-13
-7.050000e+00 2.683678e-13
-7.040000e+00 3.994892e-14
-7.030000e+00 -2.108767e-13
-7.020000e+00 -4.847675e-13
-7.010000e+00 -7.821527e-13
-7.000000e+00 -1.103183e-12
-6.990000e+00 -1.447681e-12
-6.980000e+00 -1.815092e-12
-6.970000e+00 -2.204434e-12
-6.960000e+00 -2.614254e-12
-6.950000e+00 -3.042589e-12
-6.940000e+00 -3.486924e-12
-6.930000e+00 -3.944164e-12
-6.920000e+00 -4.410614e-12
-6.910000e+00 -4.881959e-12
-6.900000e+00 -5.353266e-12
-6.890000e+00 -5.818985e-12
-6.880000e+00 -6.272970e-12
-6.870000e+00 -6.708508e-12
-6.860000e+00 -7.118363e-12
-6.850000e+00 -7.494831e-12
-6.840000e+00 -7.829812e-12
-6.830000e+00 -8.114892e-12
-6.820000e+00 -8.341442e-12
-6.810000e+00 -8.500725e-12
-6.800000e+00 -8.584019e-12
-6.790000e+00 -8.582750e-12
-6.780000e+00 -8.488629e-12
-6.770000e+00 -8.293808e-12
-6.760000e+00 -7.991034e-12
-6.750000e+00 -7.573809e-12
-6.740000e+00 -7.036546e-12
-6.730000e+00 -6.374744e-12
-6.720000e+00 -5.585134e-12
-6.710000e+00 -4.665835e-12
-6.700000e+00 -3.616501e-12
-6.690000e+00 -2.438451e-12
-6.680000e+00 -1.134789e-12
-6.670000e+00 2.894979e-13
-6.660000e+00 1.827455e-12
-6.650000e+00 3.470102e-12
-6.640000e+00 5.206398e-12
-6.630000e+00 7.023235e-12
-6.620000e+00 8.905460e-12
-6.610000e+00 1.083592e-11
-6.600000e+00 1.279556e-11
-6.590000e+00 1.476351e-11
-6.580000e+00 1.671726e-11
-6.570000e+00 1.863285e-11
-6.560000e+00 2.048503e-11
-6.550000e+00 2.224754e-11
-6.540000e+00 2.389341e-11
-6.530000e+00 2.539518e-11
-6.520000e+00 2.672531e-11
-6.510000e+00 2.785646e-11
-6.500000e+00 2.876188e-11
-6.490000e+00 2.941580e-11
-6.480000e+00 2.979379e-11
-6.470000e+00 2.987314e-11
-6.460000e+00 2.963331e-11
-6.450000e+00 2.905626e-11
-6.440000e+00 2.812683e-11
-6.430000e+00 2.683314e-11
-6.420000e+00 2.516687e-11
-6.410000e+00 2.312358e-11
-6.400000e+00 2.070306e-11
-6.390000e+00 1.790944e-11
-6.380000e+00 1.475150e-11
-6.370000e+00 1.124274e-11
-6.360000e+00 7.401513e-12
-6.350000e+00 3.251066e-12
-6.340000e+00 -1.180497e-12
-6.330000e+00 -5.860284e-12
-6.320000e+00 -1.075076e-11
-6.310000e+00 -1.580993e-11
-6.300000e+00 -2.099167e-11
-6.290000e+00 -2.624597e-11
-6.280000e+00 -3.151941e-11
-6.270000e+00 -3.675554e-11
-6.260000e+00 -4.189548e-11
-6.250000e+00 -4.687838e-11
-6.240000e+00 -5.164210e-11
-6.230000e+00 -5.612385e-11
-6.220000e+00 -6.026086e-11
-6.210000e+00 -6.399111e-11
-6.200000e+00 -6.725409e-11
-6.190000e+00 -6.999151e-11
-6.180000e+00 -7.214809e-11
-6.170000e+00 -7.367232e-11
-6.160000e+00 -7.451721e-11
-6.150000e+00 -7.464099e-11
-6.140000e+00 -7.400782e-11
-6.130000e+00 -7.258845e-11
-6.120000e+00 -7.036078e-11
-6.110000e+00 -6.731050e-11
-6.100000e+00 -6.343149e-11
-6.090000e+00 -5.872629e-11
-6.080000e+00 -5.320636e-11
-6.070000e+00 -4.689238e-11
-6.060000e+00 -3.981440e-11
-6.050000e+00 -3.201184e-11
-6.040000e+00 -2.353351e-11
-6.030000e+00 -1.443737e-11
-6.020000e+00 -4.790360e-12
-6.010000e+00 5.332043e-12
-6.000000e+00 1.584626e-11
-5.990000e+00 2.666121e-11
-5.980000e+00 3.767900e-11
-5.970000e+00 4.879569e-11
-5.960000e+00 5.990217e-11
-5.950000e+00 7.088515e-11
-5.940000e+00 8.162820e-11
-5.930000e+00 9.201283e-11
-5.920000e+00 1.019197e-10
-5.910000e+00 1.112299e-10
-5.900000e+00 1.198260e-10
-5.890000e+00 1.275936e-10
-5.880000e+00 1.344226e-10
-5.870000e+00 1.402085e-10
-5.860000e+00 1.448534e-10
-5.850000e+00 1.482677e-10
-5.840000e+00 1.503711e-10
-5.830000e+00 1.510939e-10
-5.820000e+00 1.503780e-10
-5.810000e+00 1.481778e-10
-5.800000e+00 1.444614e-10
-5.790000e+00 1.392113e-10
-5.780000e+00 1.324250e-10
-5.770000e+00 1.241156e-10
-5.760000e+00 1.143122e-10
-5.750000e+00 1.030602e-10
-5.740000e+00 9.042128e-11
-5.730000e+00 7.647347e-11
-5.720000e+00 6.131075e-11
-5.710000e+00 4.504263e-11
-5.700000e+00 2.779360e-11
-5.690000e+00 9.702274e-12
-5.680000e+00 -9.079570e-12
-5.670000e+00 -2.838815e-11
-5.660000e+00 -4.804898e-11
-5.650000e+00 -6.787840e-11
-5.640000e+00 -8.768512e-11
-5.630000e+00 -1.072721e-10
-5.620000e+00 -1.264383e-10
-5.610000e+00 -1.449809e-10
-5.600000e+00 -1.626970e-10
-5.590000e+00 -1.793863e-10
-5.580000e+00 -1.948528e-10
-5.570000e+00 -2.089074e-10
-5.560000e+00 -2.213699e-10
-5.550000e+00 -2.320713e-10
-5.540000e+00 -2.408561e-10
-5.530000e+00 -2.475838e-10
-5.520000e+00 -2.521319e-10
-5.510000e+00 -2.543968e-10
-5.500000e+00 -2.542958e-10
-5.490000e+00 -2.517689e-10
-5.480000e+00 -2.467799e-10
-5.470000e+00 -2.393174e-10
-5.460000e+00 -2.293957e-10
-5.450000e+00 -2.170555e-10
-5.440000e+00 -2.023642e-10
-5.430000e+00 -1.854155e-10
-5.420000e+00 -1.663299e-10
-5.410000e+00 -1.452531e-10
-5.400000e+00 -1.223559e-10
-5.390000e+00 -9.783250e-11
-5.380000e+00 -7.189896e-11
-5.370000e+00 -4.479147e-11
-5.360000e+00 -1.676411e-11
-5.350000e+00 1.191360e-11
-5.340000e+00 4.095942e-11
-5.330000e+00 7.008129e-11
-5.320000e+00 9.898050e-11
-5.310000e+00 1.273550e-10
-5.300000e+00 1.549028e-10
-5.290000e+00 1.813257e-10
-5.280000e+00 2.063325e-10
-5.270000e+00 2.296431e-10
-5.260000e+00 2.509918e-10
-5.250000e+00 2.701307e-10
-5.240000e+00 2.868334e-10
-5.230000e+00 3.008978e-10
-5.220000e+00 3.121495e-10
-5.210000e+00 3.204441e-10
-5.200000e+00 3.256697e-10
-5.190000e+00 3.277490e-10
-5.180000e+00 3.266410e-10
-5.170000e+00 3.223418e-10
-5.160000e+00 3.148857e-10
-5.150000e+00 3.043454e-10
-5.140000e+00 2.908315e-10
-5.130000e+00 2.744921e-10
-5.120000e+00 2.555110e-10
-5.110000e+00 2.341065e-10
-5.100000e+00 2.105285e-10
-5.090000e+00 1.850559e-10
-5.080000e+00 1.579936e-10
-5.070000e+00 1.296682e-10
-5.060000e+00 1.004242e-10
-5.050000e+00 7.061976e-11
-5.040000e+00 4.062135e-11
-5.030000e+00 1.079919e-11
-5.020000e+00 -1.847809e-11
-5.010000e+00 -4.684876e-11
-5.000000e+00 -7.396325e-11
-4.990000e+00 -9.948948e-11
-4.980000e+00 -1.231179e-10
-4.970000e+00 -1.445666e-10
-4.960000e+00 -1.635857e-10
-4.950000e+00 -1.799619e-10
-4.940000e+00 -1.935222e-10
-4.930000e+00 -2.041372e-10
-4.920000e+00 -2.117238e-10
-4.910000e+00 -2.162475e-10
-4.900000e+00 -2.177236e-10
-4.890000e+00 -2.162181e-10
-4.880000e+00 -2.118474e-10
-4.870000e+00 -2.047777e-10
-4.860000e+00 -1.952230e-10
-4.850000e+00 -1.834427e-10
-4.840000e+00 -1.697385e-10
-4.830000e+00 -1.544502e-10
-4.820000e+00 -1.379510e-10
-4.810000e+00 -1.206417e-10
-4.800000e+00 -1.029452e-10
-4.790000e+00 -8.529921e-11
-4.780000e+00 -6.814978e-11
-4.770000e+00 -5.194334e-11
-4.760000e+00 -3.711915e-11
-4.750000e+00 -2.410142e-11
-4.740000e+00 -1.329135e-11
-4.730000e+00 -5.059285e-12
-4.720000e+00 2.628734e-13
-4.710000e+00 2.388999e-12
-4.700000e+00 1.085537e-12
-4.690000e+00 -3.822258e-12
-4.680000e+00 -1.244481e-11
-4.670000e+00 -2.482350e-11
-4.660000e+00 -4.092694e-11
-4.650000e+00 -6.064815e-11
-4.640000e+00 -8.380299e-11
-4.630000e+00 -1.101296e-10
-4.620000e+00 -1.392892e-10
-4.610000e+00 -1.708679e-10
-4.600000e+00 -2.043804e-10
-4.590000e+00 -2.392739e-10
-4.580000e+00 -2.749344e-10
-4.570000e+00 -3.106935e-10
-4.560000e+00 -3.458365e-10
-4.550000e+00 -3.796115e-10
-4.540000e+00 -4.112398e-10
-4.530000e+00 -4.399272e-10
-4.520000e+00 -4.648746e-10
-4.510000e+00 -4.852919e-10
-4.500000e+00 -5.004093e-10
-4.490000e+00 -5.094911e-10
-4.480000e+00 -5.118486e-10
-4.470000e+00 -5.068525e-10
-4.460000e+00 -4.939460e-10
-4.450000e+00 -4.726563e-10
-4.440000e+00 -4.426062e-10
-4.430000e+00 -4.035241e-10
-4.420000e+00 -3.552537e-10
-4.410000e+00 -2.977612e-10
-4.400000e+00 -2.311429e-10
-4.390000e+00 -1.556288e-10
-4.380000e+00 -7.158706e-11
-4.370000e+00 2.047546e-11
-4.360000e+00 1.199132e-10
-4.350000e+00 2.259447e-10
-4.340000e+00 3.376565e-10
-4.330000e+00 4.540101e-10
-4.320000e+00 5.738503e-10
-4.310000e+00 6.959147e-10
-4.300000e+00 8.188468e-10
-4.290000e+00 9.412093e-10
-4.280000e+00 1.061499e-09
-4.270000e+00 1.178166e-09
-4.260000e+00 1.289627e-09
-4.250000e+00 1.394290e-09
-4.240000e+00 1.490568e-09
-4.230000e+00 1.576906e-09
-4.220000e+00 1.651797e-09
-4.210000e+00 1.713802e-09
-4.200000e+00 1.761575e-09
-4.190000e+00 1.793877e-09
-4.180000e+00 1.809601e-09
-4.170000e+00 1.807783e-09
-4.160000e+00 1.787626e-09
-4.150000e+00 1.748507e-09
-4.140000e+00 1.689995e-09
-4.130000e+00 1.611862e-09
-4.120000e+00 1.514088e-09
-4.110000e+00 1.396870e-09
-4.100000e+00 1.260624e-09
-4.090000e+00 1.105988e-09
-4.080000e+00 9.338162e-10
-4.070000e+00 7.451780e-10
-4.060000e+00 5.413484e-10
-4.050000e+00 3.237981e-10
-4.040000e+00 9.418095e-11
-4.030000e+00 -1.456820e-10
-4.020000e+00 -3.938203e-10
-4.010000e+00 -6.481344e-10
-4.000000e+00 -9.064178e-10
-3.990000e+00 -1.166381e-09
-3.980000e+00 -1.425676e-09
-3.970000e+00 -1.681927e-09
-3.960000e+00 -1.932750e-09
-3.950000e+00 -2.175791e-09
-3.940001e+00 -2.408745e-09
-3.930000e+00 -2.629391e-09
-3.920000e+00 -2.835616e-09
-3.910000e+00 -3.025443e-09
-3.900001e+00 -3.197058e-09
-3.890000e+00 -3.348831e-09
-3.880000e+00 -3.479343e-09
-3.870000e+00 -3.587402e-09
-3.860001e+00 -3.672062e-09
-3.850000e+00 -3.732641e-09
-3.840000e+00 -3.768731e-09
-3.830000e+00 -3.780206e-09
-3.820001e+00 -3.767234e-09
-3.810000e+00 -3.730274e-09
-3.800000e+00 -3.670078e-09
-3.790000e+00 -3.587688e-09
-3.780000e+00 -3.484430e-09
-3.770000e+00 -3.361900e-09
-3.760000e+00 -3.221956e-09
-3.750000e+00 -3.066696e-09
-3.740000e+00 -2.898443e-09
-3.730000e+00 -2.719722e-09
-3.720000e+00 -2.533234e-09
-3.710000e+00 -2.341830e-09
-3.700000e+00 -2.148487e-09
-3.690001e+00 -1.956271e-09
-3.680000e+00 -1.768309e-09
-3.670000e+00 -1.587759e-09
-3.660000e+00 -1.417775e-09
-3.650001e+00 -1.261473e-09
-3.640000e+00 -1.121905e-09
-3.630000e+00 -1.002016e-09
-3.620000e+00 -9.046229e-10
-3.610001e+00 -8.323804e-10
-3.600000e+00 -7.877518e-10
-3.590000e+00 -7.729841e-10
-3.580000e+00 -7.900828e-10
-3.570001e+00 -8.407900e-10
-3.560000e+00 -9.265649e-10
-3.550000e+00 -1.048567e-09
-3.540000e+00 -1.207643e-09
-3.530000e+00 -1.404315e-09
-3.520000e+00 -1.638773e-09
-3.510000e+00 -1.910874e-09
-3.500000e+00 -2.220136e-09
-3.490000e+00 -2.565745e-09
-3.480000e+00 -2.946556e-09
-3.470000e+00 -3.361107e-09
-3.460000e+00 -3.807628e-09
-3.450000e+00 -4.284056e-09
-3.440001e+00 -4.788055e-09
-3.430000e+00 -5.317033e-09
-3.420000e+00 -5.868170e-09
-3.410000e+00 -6.438435e-09
-3.400001e+00 -7.024622e-09
-3.390000e+00 -7.623377e-09
-3.380000e+00 -8.231223e-09
-3.370000e+00 -8.844597e-09
-3.360001e+00 -9.459882e-09
-3.350000e+00 -1.007344e-08
-3.340000e+00 -1.068164e-08
-3.330000e+00 -1.128091e-08
-3.320001e+00 -1.186774e-08
-3.310000e+00 -1.243874e-08
-3.300000e+00 -1.299067e-08
-3.290000e+00 -1.352046e-08
-3.280000e+00 -1.402524e-08
-3.270000e+00 -1.450238e-08
-3.260000e+00 -1.494952e-08
-3.250000e+00 -1.536455e-08
-3.240000e+00 -1.574569e-08
-3.230000e+00 -1.609150e-08
-3.220000e+00 -1.640083e-08
-3.210000e+00 -1.667294e-08
-3.200000e+00 -1.690741e-08
-3.190001e+00 -1.710422e-08
-3.180000e+00 -1.726372e-08
-3.170000e+00 -1.738662e-08
-3.160000e+00 -1.747403e-08
-3.150001e+00 -1.752741e-08
-3.140000e+00 -1.754859e-08
-3.130000e+00 -1.753973e-08
-3.120000e+00 -1.750335e-08
-3.110001e+00 -1.744223e-08
-3.100000e+00 -1.735950e-08
-3.090000e+00 -1.725849e-08
-3.080000e+00 -1.714280e-08
-3.070001e+00 -1.701624e-08
-3.060000e+00 -1.688275e-08
-3.050000e+00 -1.674645e-08
-3.040000e+00 -1.661153e-08
-3.030000e+00 -1.648223e-08
-3.020000e+00 -1.636282e-08
-3.010000e+00 -1.625756e-08
-3.000000e+00 -1.617062e-08
-2.990000e+00 -1.610608e-08
-2.980000e+00 -1.606787e-08
-2.970000e+00 -1.605975e-08
-2.960000e+00 -1.608523e-08
-2.950000e+00 -1.614759e-08
-2.940001e+00 -1.624979e-08
-2.930000e+00 -1.639447e-08
-2.920000e+00 -1.658393e-08
-2.910000e+00 -1.682008e-08
-2.900001e+00 -1.710442e-08
-2.890000e+00 -1.743805e-08
-2.880000e+00 -1.782163e-08
-2.870000e+00 -1.825538e-08
-2.860001e+00 -1.873906e-08
-2.850000e+00 -1.927202e-08
-2.840000e+00 -1.985315e-08
-2.830000e+00 -2.048092e-08
-2.820001e+00 -2.115339e-08
-2.810000e+00 -2.186825e-08
-2.800000e+00 -2.262282e-08
-2.790000e+00 -2.341408e-08
-2.780000e+00 -2.423873e-08
-2.770000e+00 -2.509323e-08
-2.760000e+00 -2.597379e-08
-2.750000e+00 -2.687651e-08
-2.740000e+00 -2.779732e-08
-2.730000e+00 -2.873213e-08
-2.720000e+00 -2.967682e-08
-2.710000e+00 -3.062730e-08
-2.700000e+00 -3.157958e-08
-2.690001e+00 -3.252983e-08
-2.680000e+00 -3.347441e-08
-2.670000e+00 -3.440991e-08
-2.660000e+00 -3.533323e-08
-2.650001e+00 -3.624159e-08
-2.640000e+00 -3.713261e-08
-2.630000e+00 -3.800427e-08
-2.620000e+00 -3.885505e-08
-2.610001e+00 -3.968383e-08
-2.600000e+00 -4.049000e-08
-2.590000e+00 -4.127342e-08
-2.580000e+00 -4.203448e-08
-2.570001e+00 -4.277399e-08
-2.560000e+00 -4.349331e-08
-2.550000e+00 -4.419422e-08
-2.540000e+00 -4.487896e-08
-2.530001e+00 -4.555018e-08
-2.520000e+00 -4.621088e-08
-2.510000e+00 -4.686444e-08
-2.500000e+00 -4.751448e-08
-2.490000e+00 -4.816491e-08
-2.480000e+00 -4.881977e-08
-2.470000e+00 -4.948326e-08
-2.460000e+00 -5.015964e-08
-2.450000e+00 -5.085316e-08
-2.440001e+00 -5.156804e-08
-2.430000e+00 -5.230837e-08
-2.420000e+00 -5.307805e-08
-2.410000e+00 -5.388077e-08
-2.400001e+00 -5.471992e-08
-2.390000e+00 -5.559857e-08
-2.380000e+00 -5.651938e-08
-2.370000e+00 -5.748462e-08
-2.360001e+00 -5.849611e-08
-2.350000e+00 -5.955517e-08
-2.340000e+00 -6.066265e-08
-2.330000e+00 -6.181889e-08
-2.320001e+00 -6.302371e-08
-2.310000e+00 -6.427647e-08
-2.300000e+00 -6.557600e-08
-2.290000e+00 -6.692073e-08
-2.280001e+00 -6.830859e-08
-2.270000e+00 -6.973719e-08
-2.260000e+00 -7.120374e-08
-2.250000e+00 -7.270519e-08
-2.240000e+00 -7.423823e-08
-2.230000e+00 -7.579938e-08
-2.220000e+00 -7.738507e-08
-2.210000e+00 -7.899166e-08
-2.200000e+00 -8.061554e-08
-2.190001e+00 -8.225319e-08
-2.180000e+00 -8.390127e-08
-2.170000e+00 -8.555666e-08
-2.160000e+00 -8.721652e-08
-2.150001e+00 -8.887838e-08
-2.140000e+00 -9.054016e-08
-2.130000e+00 -9.220025e-08
-2.120000e+00 -9.385752e-08
-2.110001e+00 -9.551137e-08
-2.100000e+00 -9.716176e-08
-2.090000e+00 -9.880922e-08
-2.080000e+00 -1.004548e-07
-2.070001e+00 -1.021003e-07
-2.060000e+00 -1.037479e-07
-2.050000e+00 -1.054002e-07
-2.040000e+00 -1.070607e-07
-2.030001e+00 -1.087331e-07
-2.020000e+00 -1.104214e-07
-2.010000e+00 -1.121303e-07
-2.000000e+00 -1.138646e-07
-1.990000e+00 -1.156292e-07
-1.980000e+00 -1.174296e-07
-1.970000e+00 -1.192708e-07
-1.960000e+00 -1.211583e-07
-1.950000e+00 -1.230972e-07
-1.940001e+00 -1.250927e-07
-1.930000e+00 -1.271495e-07
-1.920000e+00 -1.292724e-07
-1.910000e+00 -1.314654e-07
-1.900001e+00 -1.337323e-07
-1.890000e+00 -1.360764e-07
-1.880000e+00 -1.385005e-07
-1.870000e+00 -1.410067e-07
-1.860001e+00 -1.435966e-07
-1.850000e+00 -1.462712e-07
-1.840000e+00 -1.490307e-07
-1.830000e+00 -1.518748e-07
-1.820001e+00 -1.548027e-07
-1.810000e+00 -1.578128e-07
-1.800000e+00 -1.609031e-07
-1.790000e+00 -1.640709e-07
-1.780001e+00 -1.673132e-07
-1.770000e+00 -1.706266e-07
-1.760000e+00 -1.740072e-07
-1.750000e+00 -1.774510e-07
-1.740000e+00 -1.809538e-07
-1.730000e+00 -1.845112e-07
-1.720000e+00 -1.881189e-07
-1.710000e+00 -1.917726e-07
-1.700000e+00 -1.954683e-07
-1.690001e+00 -1.992020e-07
-1.680000e+00 -2.029703e-07
-1.670000e+00 -2.067698e-07
-1.660000e+00 -2.105980e-07
-1.650001e+00 -2.144525e-07
-1.640000e+00 -2.183319e-07
-1.630000e+00 -2.222350e-07
-1.620000e+00 -2.261614e-07
-1.610001e+00 -2.301115e-07
-1.600000e+00 -2.340861e-07
-1.590000e+00 -2.380868e-07
-1.580000e+00 -2.421158e-07
-1.570001e+00 -2.461758e-07
-1.560000e+00 -2.502703e-07
-1.550000e+00 -2.544031e-07
-1.540000e+00 -2.585785e-07
-1.530001e+00 -2.628013e-07
-1.520000e+00 -2.670765e-07
-1.510000e+00 -2.714094e-07
-1.500000e+00 -2.758053e-07
-1.490000e+00 -2.802697e-07
-1.480000e+00 -2.848081e-07
-1.470000e+00 -2.894257e-07
-1.460000e+00 -2.941277e-07
-1.450000e+00 -2.989190e-07
-1.440001e+00 -3.038038e-07
-1.430000e+00 -3.087864e-07
-1.420000e+00 -3.138701e-07
-1.410000e+00 -3.190579e-07
-1.400001e+00 -3.243524e-07
-1.390000e+00 -3.297551e-07
-1.380000e+00 -3.352673e-07
-1.370000e+00 -3.408895e-07
-1.360001e+00 -3.466216e-07
-1.350000e+00 -3.524627e-07
-1.340000e+00 -3.584117e-07
-1.330000e+00 -3.644666e-07
-1.320001e+00 -3.706252e-07
-1.310000e+00 -3.768848e-07
-1.300000e+00 -3.832424e-07
-1.290000e+00 -3.896947e-07
-1.280001e+00 -3.962384e-07
-1.270000e+00 -4.028700e-07
-1.260000e+00 -4.095861e-07
-1.250000e+00 -4.163836e-07
-1.240000e+00 -4.232594e-07
-1.230000e+00 -4.302110e-07
-1.220000e+00 -4.372362e-07
-1.210000e+00 -4.443333e-07
-1.200000e+00 -4.515013e-07
-1.190001e+00 -4.587397e-07
-1.180000e+00 -4.660491e-07
-1.170000e+00 -4.734305e-07