-4.000000e-01 0.000000e+00
-3.999000e-01 0.000000e+00
-3.998000e-01 0.000000e+00
-3.997000e-01 0.000000e+00
-3.996000e-01 0.000000e+00
-3.995000e-01 0.000000e+00
-3.994000e-01 0.000000e+00
-3.993000e-01 0.000000e+00
-3.992000e-01 0.000000e+00
-3.991000e-01 0.000000e+00
-3.990000e-01 0.000000e+00
-3.989000e-01 0.000000e+00
-3.988000e-01 0.000000e+00
-3.987000e-01 0.000000e+00
-3.986000e-01 0.000000e+00
-3.985000e-01 0.000000e+00
-3.984000e-01 0.000000e+00
-3.983000e-01 0.000000e+00
-3.982000e-01 0.000000e+00
-3.981000e-01 0.000000e+00
-3.980000e-01 0.000000e+00
-3.979000e-01 0.000000e+00
-3.978000e-01 0.000000e+00
-3.977000e-01 0.000000e+00
-3.976000e-01 0.000000e+00
-3.975000e-01 0.000000e+00
-3.974000e-01 0.000000e+00
-3.973000e-01 0.000000e+00
-3.972000e-01 0.000000e+00
-3.971000e-01 0.000000e+00
-3.970000e-01 0.000000e+00
-3.969000e-01 0.000000e+00
-3.968000e-01 0.000000e+00
-3.967000e-01 0.000000e+00
-3.966000e-01 0.000000e+00
-3.965000e-01 0.000000e+00
-3.964000e-01 0.000000e+00
-3.963000e-01 0.000000e+00
-3.962000e-01 0.000000e+00
-3.961000e-01 0.000000e+00
-3.960000e-01 0.000000e+00
-3.959000e-01 0.000000e+00
-3.958000e-01 0.000000e+00
-3.957000e-01 0.000000e+00
-3.956000e-01 0.000000e+00
-3.955000e-01 0.000000e+00
-3.954000e-01 0.000000e+00
-3.953000e-01 0.000000e+00
-3.952000e-01 0.000000e+00
-3.951000e-01 0.000000e+00
-3.950000e-01 0.000000e+00
-3.949000e-01 0.000000e+00
-3.948000e-01 0.000000e+00
-3.947000e-01 0.000000e+00
-3.946000e-01 0.000000e+00
-3.945000e-01 0.000000e+00
-3.944000e-01 0.000000e+00
-3.943000e-01 0.000000e+00
-3.942000e-01 0.000000e+00
-3.941000e-01 0.000000e+00
-3.940000e-01 0.000000e+00
-3.939000e-01 0.000000e+00
-3.938000e-01 0.000000e+00
-3.937000e-01 0.000000e+00
-3.936000e-01 0.000000e+00
-3.935000e-01 0.000000e+00
-3.934000e-01 0.000000e+00
-3.933000e-01 0.000000e+00
-3.932000e-01 0.000000e+00
-3.931000e-01 0.000000e+00
-3.930000e-01 0.000000e+00
-3.929000e-01 0.000000e+00
-3.928000e-01 0.000000e+00
-3.927000e-01 0.000000e+00
-3.926000e-01 0.000000e+00
-3.925000e-01 0.000000e+00
-3.924000e-01 0.000000e+00
-3.923000e-01 0.000000e+00
-3.922000e-01 0.000000e+00
-3.921000e-01 0.000000e+00
-3.920000e-01 0.000000e+00
-3.919000e-01 0.000000e+00
-3.918000e-01 0.000000e+00
-3.917000e-01 0.000000e+00
-3.916000e-01 0.000000e+00
-3.915000e-01 0.000000e+00
-3.914000e-01 0.000000e+00
-3.913000e-01 0.000000e+00
-3.912000e-01 0.000000e+00
-3.911000e-01 0.000000e+00
-3.910000e-01 0.000000e+00
-3.909000e-01 0.000000e+00
-3.908000e-01 0.000000e+00
-3.907000e-01 0.000000e+00
-3.906000e-01 0.000000e+00
-3.905000e-01 0.000000e+00
-3.904000e-01 0.000000e+00
-3.903000e-01 0.000000e+00
-3.902000e-01 0.000000e+00
-3.901000e-01 0.000000e+00
-3.900000e-01 0.000000e+00
-3.899000e-01 0.000000e+00
-3.898000e-01 0.000000e+00
-3.897000e-01 0.000000e+00
-3.896000e-01 0.000000e+00
-3.895000e-01 0.000000e+00
-3.894000e-01 0.000000e+00
-3.893000e-01 0.000000e+00
-3.892000e-01 0.000000e+00
-3.891000e-01 0.000000e+00
-3.890000e-01 0.000000e+00
-3.889000e-01 0.000000e+00
-3.888000e-01 0.000000e+00
-3.887000e-01 0.000000e+00
-3.886000e-01 0.000000e+00
-3.885000e-01 0.000000e+00
-3.884000e-01 0.000000e+00
-3.883000e-01 0.000000e+00
-3.882000e-01 0.000000e+00
-3.881000e-01 0.000000e+00
-3.880000e-01 0.000000e+00
-3.879000e-01 0.000000e+00
-3.878000e-01 0.000000e+00
-3.877000e-01 0.000000e+00
-3.876000e-01 0.000000e+00
-3.875000e-01 0.000000e+00
-3.874000e-01 0.000000e+00
-3.873000e-01 0.000000e+00
-3.872000e-01 0.000000e+00
-3.871000e-01 0.000000e+00
-3.870000e-01 0.000000e+00
-3.869000e-01 0.000000e+00
-3.868000e-01 0.000000e+00
-3.867000e-01 0.000000e+00
-3.866000e-01 0.000000e+00
-3.865000e-01 0.000000e+00
-3.864000e-01 0.000000e+00
-3.863000e-01 0.000000e+00
-3.862000e-01 0.000000e+00
-3.861000e-01 0.000000e+00
-3.860000e-01 0.000000e+00
-3.859000e-01 0.000000e+00
-3.858000e-01 0.000000e+00
-3.857000e-01 0.000000e+00
-3.856000e-01 0.000000e+00
-3.855000e-01 0.000000e+00
-3.854000e-01 0.000000e+00
-3.853000e-01 0.000000e+00
-3.852000e-01 0.000000e+00
-3.851000e-01 0.000000e+00
-3.850000e-01 0.000000e+00
-3.849000e-01 0.000000e+00
-3.848000e-01 0.000000e+00
-3.847000e-01 0.000000e+00
-3.846000e-01 0.000000e+00
-3.845000e-01 0.000000e+00
-3.844000e-01 0.000000e+00
-3.843000e-01 0.000000e+00
-3.842000e-01 0.000000e+00
-3.841000e-01 0.000000e+00
-3.840000e-01 0.000000e+00
-3.839000e-01 0.000000e+00
-3.838000e-01 0.000000e+00
-3.837000e-01 0.000000e+00
-3.836000e-01 0.000000e+00
-3.835000e-01 0.000000e+00
-3.834000e-01 0.000000e+00
-3.833000e-01 0.000000e+00
-3.832000e-01 0.000000e+00
-3.831000e-01 0.000000e+00
-3.830000e-01 0.000000e+00
-3.829000e-01 0.000000e+00
-3.828000e-01 0.000000e+00
-3.827000e-01 0.000000e+00
-3.826000e-01 0.000000e+00
-3.825000e-01 0.000000e+00
-3.824000e-01 0.000000e+00
-3.823000e-01 0.000000e+00
-3.822000e-01 0.000000e+00
-3.821000e-01 0.000000e+00
-3.820000e-01 0.000000e+00
-3.819000e-01 0.000000e+00
-3.818000e-01 0.000000e+00
-3.817000e-01 0.000000e+00
-3.816000e-01 0.000000e+00
-3.815000e-01 0.000000e+00
-3.814000e-01 0.000000e+00
-3.813000e-01 0.000000e+00
-3.812000e-01 0.000000e+00
-3.811000e-01 0.000000e+00
-3.810000e-01 0.000000e+00
-3.809000e-01 0.000000e+00
-3.808000e-01 0.000000e+00
-3.807000e-01 0.000000e+00
-3.806000e-01 0.000000e+00
-3.805000e-01 0.000000e+00
-3.804000e-01 0.000000e+00
-3.803000e-01 0.000000e+00
-3.802000e-01 0.000000e+00
-3.801000e-01 0.000000e+00
-3.800000e-01 0.000000e+00
-3.799000e-01 0.000000e+00
-3.798000e-01 0.000000e+00
-3.797000e-01 0.000000e+00
-3.796000e-01 0.000000e+00
-3.795000e-01 0.000000e+00
-3.794000e-01 0.000000e+00
-3.793000e-01 0.000000e+00
-3.792000e-01 0.000000e+00
-3.791000e-01 0.000000e+00
-3.790000e-01 0.000000e+00
-3.789000e-01 0.000000e+00
-3.788000e-01 0.000000e+00
-3.787000e-01 0.000000e+00
-3.786000e-01 0.000000e+00
-3.785000e-01 0.000000e+00
-3.784000e-01 0.000000e+00
-3.783000e-01 0.000000e+00
-3.782000e-01 0.000000e+00
-3.781000e-01 0.000000e+00
-3.780000e-01 0.000000e+00
-3.779000e-01 0.000000e+00
-3.778000e-01 0.000000e+00
-3.777000e-01 0.000000e+00
-3.776000e-01 0.000000e+00
-3.775000e-01 0.000000e+00
-3.774000e-01 0.000000e+00
-3.773000e-01 0.000000e+00
-3.772000e-01 0.000000e+00
-3.771000e-01 0.000000e+00
-3.770000e-01 0.000000e+00
-3.769000e-01 0.000000e+00
-3.768000e-01 0.000000e+00
-3.767000e-01 0.000000e+00
-3.766000e-01 0.000000e+00
-3.765000e-01 0.000000e+00
-3.764000e-01 0.000000e+00
-3.763000e-01 0.000000e+00
-3.762000e-01 0.000000e+00
-3.761000e-01 0.000000e+00
-3.760000e-01 0.000000e+00
-3.759000e-01 0.000000e+00
-3.758000e-01 0.000000e+00
-3.757000e-01 0.000000e+00
-3.756000e-01 0.000000e+00
-3.755000e-01 0.000000e+00
-3.754000e-01 0.000000e+00
-3.753000e-01 0.000000e+00
-3.752000e-01 0.000000e+00
-3.751000e-01 0.000000e+00
-3.750000e-01 0.000000e+00
-3.749000e-01 0.000000e+00
-3.748000e-01 0.000000e+00
-3.747000e-01 0.000000e+00
-3.746000e-01 0.000000e+00
-3.745000e-01 0.000000e+00
-3.744000e-01 0.000000e+00
-3.743000e-01 0.000000e+00
-3.742000e-01 0.000000e+00
-3.741000e-01 0.000000e+00
-3.740000e-01 0.000000e+00
-3.739000e-01 0.000000e+00
-3.738000e-01 0.000000e+00
-3.737000e-01 0.000000e+00
-3.736000e-01 0.000000e+00
-3.735000e-01 0.000000e+00
-3.734000e-01 0.000000e+00
-3.733000e-01 0.000000e+00
-3.732000e-01 0.000000e+00
-3.731000e-01 0.000000e+00
-3.730000e-01 0.000000e+00
-3.729000e-01 0.000000e+00
-3.728000e-01 0.000000e+00
-3.727000e-01 0.000000e+00
-3.726000e-01 0.000000e+00
-3.725000e-01 0.000000e+00
-3.724000e-01 0.000000e+00
-3.723000e-01 0.000000e+00
-3.722000e-01 0.000000e+00
-3.721000e-01 0.000000e+00
-3.720000e-01 0.000000e+00
-3.719000e-01 0.000000e+00
-3.718000e-01 0.000000e+00
-3.717000e-01 0.000000e+00
-3.716000e-01 0.000000e+00
-3.715000e-01 0.000000e+00
-3.714000e-01 0.000000e+00
-3.713000e-01 0.000000e+00
-3.712000e-01 0.000000e+00
-3.711000e-01 0.000000e+00
-3.710000e-01 0.000000e+00
-3.709000e-01 0.000000e+00
-3.708000e-01 0.000000e+00
-3.707000e-01 0.000000e+00
-3.706000e-01 0.000000e+00
-3.705000e-01 0.000000e+00
-3.704000e-01 0.000000e+00
-3.703000e-01 0.000000e+00
-3.702000e-01 0.000000e+00
-3.701000e-01 0.000000e+00
-3.700000e-01 0.000000e+00
-3.699000e-01 0.000000e+00
-3.698000e-01 0.000000e+00
-3.697000e-01 0.000000e+00
-3.696000e-01 0.000000e+00
-3.695000e-01 0.000000e+00
-3.694000e-01 0.000000e+00
-3.693000e-01 0.000000e+00
-3.692000e-01 0.000000e+00
-3.691000e-01 0.000000e+00
-3.690000e-01 0.000000e+00
-3.689000e-01 0.000000e+00
-3.688000e-01 0.000000e+00
-3.687000e-01 0.000000e+00
-3.686000e-01 0.000000e+00
-3.685000e-01 0.000000e+00
-3.684000e-01 0.000000e+00
-3.683000e-01 0.000000e+00
-3.682000e-01 0.000000e+00
-3.681000e-01 0.000000e+00
-3.680000e-01 0.000000e+00
-3.679000e-01 0.000000e+00
-3.678000e-01 0.000000e+00
-3.677000e-01 0.000000e+00
-3.676000e-01 0.000000e+00
-3.675000e-01 0.000000e+00
-3.674000e-01 0.000000e+00
-3.673000e-01 0.000000e+00
-3.672000e-01 0.000000e+00
-3.671000e-01 0.000000e+00
-3.670000e-01 0.000000e+00
-3.669000e-01 0.000000e+00
-3.668000e-01 0.000000e+00
-3.667000e-01 0.000000e+00
-3.666000e-01 0.000000e+00
-3.665000e-01 0.000000e+00
-3.664000e-01 0.000000e+00
-3.663000e-01 0.000000e+00
-3.662000e-01 0.000000e+00
-3.661000e-01 0.000000e+00
-3.660000e-01 0.000000e+00
-3.659000e-01 0.000000e+00
-3.658000e-01 0.000000e+00
-3.657000e-01 0.000000e+00
-3.656000e-01 0.000000e+00
-3.655000e-01 0.000000e+00
-3.654000e-01 0.000000e+00
-3.653000e-01 0.000000e+00
-3.652000e-01 0.000000e+00
-3.651000e-01 0.000000e+00
-3.650000e-01 0.000000e+00
-3.649000e-01 0.000000e+00
-3.648000e-01 0.000000e+00
-3.647000e-01 0.000000e+00
-3.646000e-01 0.000000e+00
-3.645000e-01 0.000000e+00
-3.644000e-01 0.000000e+00
-3.643000e-01 0.000000e+00
-3.642000e-01 0.000000e+00
-3.641000e-01 0.000000e+00
-3.640000e-01 0.000000e+00
-3.639000e-01 0.000000e+00
-3.638000e-01 0.000000e+00
-3.637000e-01 0.000000e+00
-3.636000e-01 0.000000e+00
-3.635000e-01 0.000000e+00
-3.634000e-01 0.000000e+00
-3.633000e-01 0.000000e+00
-3.632000e-01 0.000000e+00
-3.631000e-01 0.000000e+00
-3.630000e-01 0.000000e+00
-3.629000e-01 0.000000e+00
-3.628000e-01 0.000000e+00
-3.627000e-01 0.000000e+00
-3.626000e-01 0.000000e+00
-3.625000e-01 0.000000e+00
-3.624000e-01 0.000000e+00
-3.623000e-01 0.000000e+00
-3.622000e-01 0.000000e+00
-3.621000e-01 0.000000e+00
-3.620000e-01 0.000000e+00
-3.619000e-01 0.000000e+00
-3.618000e-01 0.000000e+00
-3.617000e-01 0.000000e+00
-3.616000e-01 0.000000e+00
-3.615000e-01 0.000000e+00
-3.614000e-01 0.000000e+00
-3.613000e-01 0.000000e+00
-3.612000e-01 0.000000e+00
-3.611000e-01 0.000000e+00
-3.610000e-01 0.000000e+00
-3.609000e-01 0.000000e+00
-3.608000e-01 0.000000e+00
-3.607000e-01 0.000000e+00
-3.606000e-01 0.000000e+00
-3.605000e-01 0.000000e+00
-3.604000e-01 0.000000e+00
-3.603000e-01 0.000000e+00
-3.602000e-01 0.000000e+00
-3.601000e-01 0.000000e+00
-3.600000e-01 0.000000e+00
-3.599000e-01 0.000000e+00
-3.598000e-01 0.000000e+00
-3.597000e-01 0.000000e+00
-3.596000e-01 0.000000e+00
-3.595000e-01 0.000000e+00
-3.594000e-01 0.000000e+00
-3.593000e-01 0.000000e+00
-3.592000e-01 0.000000e+00
-3.591000e-01 0.000000e+00
-3.590000e-01 0.000000e+00
-3.589000e-01 0.000000e+00
-3.588000e-01 0.000000e+00
-3.587000e-01 0.000000e+00
-3.586000e-01 0.000000e+00
-3.585000e-01 0.000000e+00
-3.584000e-01 0.000000e+00
-3.583000e-01 0.000000e+00
-3.582000e-01 0.000000e+00
-3.581000e-01 0.000000e+00
-3.580000e-01 0.000000e+00
-3.579000e-01 0.000000e+00
-3.578000e-01 0.000000e+00
-3.577000e-01 0.000000e+00
-3.576000e-01 0.000000e+00
-3.575000e-01 0.000000e+00
-3.574000e-01 0.000000e+00
-3.573000e-01 0.000000e+00
-3.572000e-01 0.000000e+00
-3.571000e-01 0.000000e+00
-3.570000e-01 0.000000e+00
-3.569000e-01 0.000000e+00
-3.568000e-01 0.000000e+00
-3.567000e-01 0.000000e+00
-3.566000e-01 0.000000e+00
-3.565000e-01 0.000000e+00
-3.564000e-01 0.000000e+00
-3.563000e-01 0.000000e+00
-3.562000e-01 0.000000e+00
-3.561000e-01 0.000000e+00
-3.560000e-01 0.000000e+00
-3.559000e-01 0.000000e+00
-3.558000e-01 0.000000e+00
-3.557000e-01 0.000000e+00
-3.556000e-01 0.000000e+00
-3.555000e-01 0.000000e+00
-3.554000e-01 0.000000e+00
-3.553000e-01 0.000000e+00
-3.552000e-01 0.000000e+00
-3.551000e-01 0.000000e+00
-3.550000e-01 0.000000e+00
-3.549000e-01 0.000000e+00
-3.548000e-01 0.000000e+00
-3.547000e-01 0.000000e+00
-3.546000e-01 0.000000e+00
-3.545000e-01 0.000000e+00
-3.544000e-01 0.000000e+00
-3.543000e-01 0.000000e+00
-3.542000e-01 0.000000e+00
-3.541000e-01 0.000000e+00
-3.540000e-01 0.000000e+00
-3.539000e-01 0.000000e+00
-3.538000e-01 0.000000e+00
-3.537000e-01 0.000000e+00
-3.536000e-01 0.000000e+00
-3.535000e-01 0.000000e+00
-3.534000e-01 0.000000e+00
-3.533000e-01 0.000000e+00
-3.532000e-01 0.000000e+00
-3.531000e-01 0.000000e+00
-3.530000e-01 0.000000e+00
-3.529000e-01 0.000000e+00
-3.528000e-01 0.000000e+00
-3.527000e-01 0.000000e+00
-3.526000e-01 0.000000e+00
-3.525000e-01 0.000000e+00
-3.524000e-01 0.000000e+00
-3.523000e-01 0.000000e+00
-3.522000e-01 0.000000e+00
-3.521000e-01 0.000000e+00
-3.520000e-01 0.000000e+00
-3.519000e-01 0.000000e+00
-3.518000e-01 0.000000e+00
-3.517000e-01 0.000000e+00
-3.516000e-01 0.000000e+00
-3.515000e-01 0.000000e+00
-3.514000e-01 0.000000e+00
-3.513000e-01 0.000000e+00
-3.512000e-01 0.000000e+00
-3.511000e-01 0.000000e+00
-3.510000e-01 0.000000e+00
-3.509000e-01 0.000000e+00
-3.508000e-01 0.000000e+00
-3.507000e-01 0.000000e+00
-3.506000e-01 0.000000e+00
-3.505000e-01 0.000000e+00
-3.504000e-01 0.000000e+00
-3.503000e-01 0.000000e+00
-3.502000e-01 0.000000e+00
-3.501000e-01 0.000000e+00
-3.500000e-01 0.000000e+00
-3.499000e-01 0.000000e+00
-3.498000e-01 0.000000e+00
-3.497000e-01 0.000000e+00
-3.496000e-01 0.000000e+00
-3.495000e-01 0.000000e+00
-3.494000e-01 0.000000e+00
-3.493000e-01 0.000000e+00
-3.492000e-01 0.000000e+00
-3.491000e-01 0.000000e+00
-3.490000e-01 0.000000e+00
-3.489000e-01 0.000000e+00
-3.488000e-01 0.000000e+00
-3.487000e-01 0.000000e+00
-3.486000e-01 0.000000e+00
-3.485000e-01 0.000000e+00
-3.484000e-01 0.000000e+00
-3.483000e-01 0.000000e+00
-3.482000e-01 0.000000e+00
-3.481000e-01 0.000000e+00
-3.480000e-01 0.000000e+00
-3.479000e-01 0.000000e+00
-3.478000e-01 0.000000e+00
-3.477000e-01 0.000000e+00
-3.476000e-01 0.000000e+00
-3.475000e-01 0.000000e+00
-3.474000e-01 0.000000e+00
-3.473000e-01 0.000000e+00
-3.472000e-01 0.000000e+00
-3.471000e-01 0.000000e+00
-3.470000e-01 0.000000e+00
-3.469000e-01 0.000000e+00
-3.468000e-01 0.000000e+00
-3.467000e-01 0.000000e+00
-3.466000e-01 0.000000e+00
-3.465000e-01 0.000000e+00
-3.464000e-01 0.000000e+00
-3.463000e-01 0.000000e+00
-3.462000e-01 0.000000e+00
-3.461000e-01 0.000000e+00
-3.460000e-01 0.000000e+00
-3.459000e-01 0.000000e+00
-3.458000e-01 0.000000e+00
-3.457000e-01 0.000000e+00
-3.456000e-01 0.000000e+00
-3.455000e-01 0.000000e+00
-3.454000e-01 0.000000e+00
-3.453000e-01 0.000000e+00
-3.452000e-01 0.000000e+00
-3.451000e-01 0.000000e+00
-3.450000e-01 0.000000e+00
-3.449000e-01 0.000000e+00
-3.448000e-01 0.000000e+00
-3.447000e-01 0.000000e+00
-3.446000e-01 0.000000e+00
-3.445000e-01 0.000000e+00
-3.444000e-01 0.000000e+00
-3.443000e-01 0.000000e+00
-3.442000e-01 0.000000e+00
-3.441000e-01 0.000000e+00
-3.440000e-01 0.000000e+00
-3.439000e-01 0.000000e+00
-3.438000e-01 0.000000e+00
-3.437000e-01 0.000000e+00
-3.436000e-01 0.000000e+00
-3.435000e-01 0.000000e+00
-3.434000e-01 0.000000e+00
-3.433000e-01 0.000000e+00
-3.432000e-01 0.000000e+00
-3.431000e-01 0.000000e+00
-3.430000e-01 0.000000e+00
-3.429000e-01 0.000000e+00
-3.428000e-01 0.000000e+00
-3.427000e-01 0.000000e+00
-3.426000e-01 0.000000e+00
-3.425000e-01 0.000000e+00
-3.424000e-01 0.000000e+00
-3.423000e-01 0.000000e+00
-3.422000e-01 0.000000e+00
-3.421000e-01 0.000000e+00
-3.420000e-01 0.000000e+00
-3.419000e-01 0.000000e+00
-3.418000e-01 0.000000e+00
-3.417000e-01 0.000000e+00
-3.416000e-01 0.000000e+00
-3.415000e-01 0.000000e+00
-3.414000e-01 0.000000e+00
-3.413000e-01 0.000000e+00
-3.412000e-01 0.000000e+00
-3.411000e-01 0.000000e+00
-3.410000e-01 0.000000e+00
-3.409000e-01 0.000000e+00
-3.408000e-01 0.000000e+00
-3.407000e-01 0.000000e+00
-3.406000e-01 0.000000e+00
-3.405000e-01 0.000000e+00
-3.404000e-01 0.000000e+00
-3.403000e-01 0.000000e+00
-3.402000e-01 0.000000e+00
-3.401000e-01 0.000000e+00
-3.400000e-01 0.000000e+00
-3.399000e-01 0.000000e+00
-3.398000e-01 0.000000e+00
-3.397000e-01 0.000000e+00
-3.396000e-01 0.000000e+00
-3.395000e-01 0.000000e+00
-3.394000e-01 0.000000e+00
-3.393000e-01 0.000000e+00
-3.392000e-01 0.000000e+00
-3.391000e-01 0.000000e+00
-3.390000e-01 0.000000e+00
-3.389000e-01 0.000000e+00
-3.388000e-01 0.000000e+00
-3.387000e-01 0.000000e+00
-3.386000e-01 0.000000e+00
-3.385000e-01 0.000000e+00
-3.384000e-01 0.000000e+00
-3.383000e-01 0.000000e+00
-3.382000e-01 0.000000e+00
-3.381000e-01 0.000000e+00
-3.380000e-01 0.000000e+00
-3.379000e-01 0.000000e+00
-3.378000e-01 0.000000e+00
-3.377000e-01 0.000000e+00
-3.376000e-01 0.000000e+00
-3.375000e-01 0.000000e+00
-3.374000e-01 0.000000e+00
-3.373000e-01 0.000000e+00
-3.372000e-01 0.000000e+00
-3.371000e-01 0.000000e+00
-3.370000e-01 0.000000e+00
-3.369000e-01 0.000000e+00
-3.368000e-01 0.000000e+00
-3.367000e-01 0.000000e+00
-3.366000e-01 0.000000e+00
-3.365000e-01 0.000000e+00
-3.364000e-01 0.000000e+00
-3.363000e-01 0.000000e+00
-3.362000e-01 0.000000e+00
-3.361000e-01 0.000000e+00
-3.360000e-01 0.000000e+00
-3.359000e-01 0.000000e+00
-3.358000e-01 0.000000e+00
-3.357000e-01 0.000000e+00
-3.356000e-01 0.000000e+00
-3.355000e-01 0.000000e+00
-3.354000e-01 0.000000e+00
-3.353000e-01 0.000000e+00
-3.352000e-01 0.000000e+00
-3.351000e-01 0.000000e+00
-3.350000e-01 0.000000e+00
-3.349000e-01 0.000000e+00
-3.348000e-01 0.000000e+00
-3.347000e-01 0.000000e+00
-3.346000e-01 0.000000e+00
-3.345000e-01 0.000000e+00
-3.344000e-01 0.000000e+00
-3.343000e-01 0.000000e+00
-3.342000e-01 0.000000e+00
-3.341000e-01 0.000000e+00
-3.340000e-01 0.000000e+00
-3.339000e-01 0.000000e+00
-3.338000e-01 0.000000e+00
-3.337000e-01 0.000000e+00
-3.336000e-01 0.000000e+00
-3.335000e-01 0.000000e+00
-3.334000e-01 0.000000e+00
-3.333000e-01 0.000000e+00
-3.332000e-01 0.000000e+00
-3.331000e-01 0.000000e+00
-3.330000e-01 0.000000e+00
-3.329000e-01 0.000000e+00
-3.328000e-01 0.000000e+00
-3.327000e-01 0.000000e+00
-3.326000e-01 0.000000e+00
-3.325000e-01 0.000000e+00
-3.324000e-01 0.000000e+00
-3.323000e-01 0.000000e+00
-3.322000e-01 0.000000e+00
-3.321000e-01 0.000000e+00
-3.320000e-01 0.000000e+00
-3.319000e-01 0.000000e+00
-3.318000e-01 0.000000e+00
-3.317000e-01 0.000000e+00
-3.316000e-01 0.000000e+00
-3.315000e-01 0.000000e+00
-3.314000e-01 0.000000e+00
-3.313000e-01 0.000000e+00
-3.312000e-01 0.000000e+00
-3.311000e-01 0.000000e+00
-3.310000e-01 0.000000e+00
-3.309000e-01 0.000000e+00
-3.308000e-01 0.000000e+00
-3.307000e-01 0.000000e+00
-3.306000e-01 0.000000e+00
-3.305000e-01 0.000000e+00
-3.304000e-01 0.000000e+00
-3.303000e-01 0.000000e+00
-3.302000e-01 0.000000e+00
-3.301000e-01 0.000000e+00
-3.300000e-01 0.000000e+00
-3.299000e-01 0.000000e+00
-3.298000e-01 0.000000e+00
-3.297000e-01 0.000000e+00
-3.296000e-01 0.000000e+00
-3.295000e-01 0.000000e+00
-3.294000e-01 0.000000e+00
-3.293000e-01 0.000000e+00
-3.292000e-01 0.000000e+00
-3.291000e-01 0.000000e+00
-3.290000e-01 0.000000e+00
-3.289000e-01 0.000000e+00
-3.288000e-01 0.000000e+00
-3.287000e-01 0.000000e+00
-3.286000e-01 0.000000e+00
-3.285000e-01 0.000000e+00
-3.284000e-01 0.000000e+00
-3.283000e-01 0.000000e+00
-3.282000e-01 0.000000e+00
-3.281000e-01 0.000000e+00
-3.280000e-01 0.000000e+00
-3.279000e-01 0.000000e+00
-3.278000e-01 0.000000e+00
-3.277000e-01 0.000000e+00
-3.276000e-01 0.000000e+00
-3.275000e-01 0.000000e+00
-3.274000e-01 0.000000e+00
-3.273000e-01 0.000000e+00
-3.272000e-01 0.000000e+00
-3.271000e-01 0.000000e+00
-3.270000e-01 0.000000e+00
-3.269000e-01 0.000000e+00
-3.268000e-01 0.000000e+00
-3.267000e-01 0.000000e+00
-3.266000e-01 0.000000e+00
-3.265000e-01 0.000000e+00
-3.264000e-01 0.000000e+00
-3.263000e-01 0.000000e+00
-3.262000e-01 0.000000e+00
-3.261000e-01 0.000000e+00
-3.260000e-01 0.000000e+00
-3.259000e-01 0.000000e+00
-3.258000e-01 0.000000e+00
-3.257000e-01 0.000000e+00
-3.256000e-01 0.000000e+00
-3.255000e-01 0.000000e+00
-3.254000e-01 0.000000e+00
-3.253000e-01 0.000000e+00
-3.252000e-01 0.000000e+00
-3.251000e-01 0.000000e+00
-3.250000e-01 0.000000e+00
-3.249000e-01 0.000000e+00
-3.248000e-01 0.000000e+00
-3.247000e-01 0.000000e+00
-3.246000e-01 0.000000e+00
-3.245000e-01 0.000000e+00
-3.244000e-01 0.000000e+00
-3.243000e-01 0.000000e+00
-3.242000e-01 0.000000e+00
-3.241000e-01 0.000000e+00
-3.240000e-01 0.000000e+00
-3.239000e-01 0.000000e+00
-3.238000e-01 0.000000e+00
-3.237000e-01 0.000000e+00
-3.236000e-01 0.000000e+00
-3.235000e-01 0.000000e+00
-3.234000e-01 0.000000e+00
-3.233000e-01 0.000000e+00
-3.232000e-01 0.000000e+00
-3.231000e-01 0.000000e+00
-3.230000e-01 0.000000e+00
-3.229000e-01 0.000000e+00
-3.228000e-01 0.000000e+00
-3.227000e-01 0.000000e+00
-3.226000e-01 0.000000e+00
-3.225000e-01 0.000000e+00
-3.224000e-01 0.000000e+00
-3.223000e-01 0.000000e+00
-3.222000e-01 0.000000e+00
-3.221000e-01 0.000000e+00
-3.220000e-01 0.000000e+00
-3.219000e-01 0.000000e+00
-3.218000e-01 0.000000e+00
-3.217000e-01 0.000000e+00
-3.216000e-01 0.000000e+00
-3.215000e-01 0.000000e+00
-3.214000e-01 0.000000e+00
-3.213000e-01 0.000000e+00
-3.212000e-01 0.000000e+00
-3.211000e-01 0.000000e+00
-3.210000e-01 0.000000e+00
-3.209000e-01 0.000000e+00
-3.208000e-01 0.000000e+00
-3.207000e-01 0.000000e+00
-3.206000e-01 0.000000e+00
-3.205000e-01 0.000000e+00
-3.204000e-01 0.000000e+00
-3.203000e-01 0.000000e+00
-3.202000e-01 0.000000e+00
-3.201000e-01 0.000000e+00
-3.200000e-01 0.000000e+00
-3.199000e-01 0.000000e+00
-3.198000e-01 0.000000e+00
-3.197000e-01 0.000000e+00
-3.196000e-01 0.000000e+00
-3.195000e-01 0.000000e+00
-3.194000e-01 0.000000e+00
-3.193000e-01 0.000000e+00
-3.192000e-01 0.000000e+00
-3.191000e-01 0.000000e+00
-3.190000e-01 0.000000e+00
-3.189000e-01 0.000000e+00
-3.188000e-01 0.000000e+00
-3.187000e-01 0.000000e+00
-3.186000e-01 0.000000e+00
-3.185000e-01 0.000000e+00
-3.184000e-01 0.000000e+00
-3.183000e-01 0.000000e+00
-3.182000e-01 0.000000e+00
-3.181000e-01 0.000000e+00
-3.180000e-01 0.000000e+00
-3.179000e-01 0.000000e+00
-3.178000e-01 0.000000e+00
-3.177000e-01 0.000000e+00
-3.176000e-01 0.000000e+00
-3.175000e-01 0.000000e+00
-3.174000e-01 0.000000e+00
-3.173000e-01 0.000000e+00
-3.172000e-01 0.000000e+00
-3.171000e-01 0.000000e+00
-3.170000e-01 0.000000e+00
-3.169000e-01 0.000000e+00
-3.168000e-01 0.000000e+00
-3.167000e-01 0.000000e+00
-3.166000e-01 0.000000e+00
-3.165000e-01 0.000000e+00
-3.164000e-01 0.000000e+00
-3.163000e-01 0.000000e+00
-3.162000e-01 0.000000e+00
-3.161000e-01 0.000000e+00
-3.160000e-01 0.000000e+00
-3.159000e-01 0.000000e+00
-3.158000e-01 0.000000e+00
-3.157000e-01 0.000000e+00
-3.156000e-01 0.000000e+00
-3.155000e-01 0.000000e+00
-3.154000e-01 0.000000e+00
-3.153000e-01 0.000000e+00
-3.152000e-01 0.000000e+00
-3.151000e-01 0.000000e+00
-3.150000e-01 0.000000e+00
-3.149000e-01 0.000000e+00
-3.148000e-01 0.000000e+00
-3.147000e-01 0.000000e+00
-3.146000e-01 0.000000e+00
-3.145000e-01 0.000000e+00
-3.144000e-01 0.000000e+00
-3.143000e-01 0.000000e+00
-3.142000e-01 0.000000e+00
-3.141000e-01 0.000000e+00
-3.140000e-01 0.000000e+00
-3.139000e-01 0.000000e+00
-3.138000e-01 0.000000e+00
-3.137000e-01 0.000000e+00
-3.136000e-01 0.000000e+00
-3.135000e-01 0.000000e+00
-3.134000e-01 0.000000e+00
-3.133000e-01 0.000000e+00
-3.132000e-01 0.000000e+00
-3.131000e-01 0.000000e+00
-3.130000e-01 0.000000e+00
-3.129000e-01 0.000000e+00
-3.128000e-01 0.000000e+00
-3.127000e-01 0.000000e+00
-3.126000e-01 0.000000e+00
-3.125000e-01 0.000000e+00
-3.124000e-01 0.000000e+00
-3.123000e-01 0.000000e+00
-3.122000e-01 0.000000e+00
-3.121000e-01 0.000000e+00
-3.120000e-01 0.000000e+00
-3.119000e-01 0.000000e+00
-3.118000e-01 0.000000e+00
-3.117000e-01 0.000000e+00
-3.116000e-01 0.000000e+00
-3.115000e-01 0.000000e+00
-3.114000e-01 0.000000e+00
-3.113000e-01 0.000000e+00
-3.112000e-01 0.000000e+00
-3.111000e-01 0.000000e+00
-3.110000e-01 0.000000e+00
-3.109000e-01 0.000000e+00
-3.108000e-01 0.000000e+00
-3.107000e-01 0.000000e+00
-3.106000e-01 0.000000e+00
-3.105000e-01 0.000000e+00
-3.104000e-01 0.000000e+00
-3.103000e-01 0.000000e+00
-3.102000e-01 0.000000e+00
-3.101000e-01 0.000000e+00
-3.100000e-01 0.000000e+00
-3.099000e-01 0.000000e+00
-3.098000e-01 0.000000e+00
-3.097000e-01 0.000000e+00
-3.096000e-01 0.000000e+00
-3.095000e-01 0.000000e+00
-3.094000e-01 0.000000e+00
-3.093000e-01 0.000000e+00
-3.092000e-01 0.000000e+00
-3.091000e-01 0.000000e+00
-3.090000e-01 0.000000e+00
-3.089000e-01 0.000000e+00
-3.088000e-01 0.000000e+00
-3.087000e-01 0.000000e+00
-3.086000e-01 0.000000e+00
-3.085000e-01 0.000000e+00
-3.084000e-01 0.000000e+00
-3.083000e-01 0.000000e+00
-3.082000e-01 0.000000e+00
-3.081000e-01 0.000000e+00
-3.080000e-01 0.000000e+00
-3.079000e-01 0.000000e+00
-3.078000e-01 0.000000e+00
-3.077000e-01 0.000000e+00
-3.076000e-01 0.000000e+00
-3.075000e-01 0.000000e+00
-3.074000e-01 0.000000e+00
-3.073000e-01 0.000000e+00
-3.072000e-01 0.000000e+00
-3.071000e-01 0.000000e+00
-3.070000e-01 0.000000e+00
-3.069000e-01 0.000000e+00
-3.068000e-01 0.000000e+00
-3.067000e-01 0.000000e+00
-3.066000e-01 0.000000e+00
-3.065000e-01 0.000000e+00
-3.064000e-01 0.000000e+00
-3.063000e-01 0.000000e+00
-3.062000e-01 0.000000e+00
-3.061000e-01 0.000000e+00
-3.060000e-01 0.000000e+00
-3.059000e-01 0.000000e+00
-3.058000e-01 0.000000e+00
-3.057000e-01 0.000000e+00
-3.056000e-01 0.000000e+00
-3.055000e-01 0.000000e+00
-3.054000e-01 0.000000e+00
-3.053000e-01 0.000000e+00
-3.052000e-01 0.000000e+00
-3.051000e-01 0.000000e+00
-3.050000e-01 0.000000e+00
-3.049000e-01 0.000000e+00
-3.048000e-01 0.000000e+00
-3.047000e-01 0.000000e+00
-3.046000e-01 0.000000e+00
-3.045000e-01 0.000000e+00
-3.044000e-01 0.000000e+00
-3.043000e-01 0.000000e+00
-3.042000e-01 0.000000e+00
-3.041000e-01 0.000000e+00
-3.040000e-01 0.000000e+00
-3.039000e-01 0.000000e+00
-3.038000e-01 0.000000e+00
-3.037000e-01 0.000000e+00
-3.036000e-01 0.000000e+00
-3.035000e-01 0.000000e+00
-3.034000e-01 0.000000e+00
-3.033000e-01 0.000000e+00
-3.032000e-01 0.000000e+00
-3.031000e-01 0.000000e+00
-3.030000e-01 0.000000e+00
-3.029000e-01 0.000000e+00
-3.028000e-01 0.000000e+00
-3.027000e-01 0.000000e+00
-3.026000e-01 0.000000e+00
-3.025000e-01 0.000000e+00
-3.024000e-01 0.000000e+00
-3.023000e-01 0.000000e+00
-3.022000e-01 0.000000e+00
-3.021000e-01 0.000000e+00
-3.020000e-01 0.000000e+00
-3.019000e-01 0.000000e+00
-3.018000e-01 0.000000e+00
-3.017000e-01 0.000000e+00
-3.016000e-01 0.000000e+00
-3.015000e-01 0.000000e+00
-3.014000e-01 0.000000e+00
-3.013000e-01 0.000000e+00
-3.012000e-01 0.000000e+00
-3.011000e-01 0.000000e+00
-3.010000e-01 0.000000e+00
-3.009000e-01 0.000000e+00
-3.008000e-01 0.000000e+00
-3.007000e-01 0.000000e+00
-3.006000e-01 0.000000e+00
-3.005000e-01 0.000000e+00
-3.004000e-01 0.000000e+00
-3.003000e-01 0.000000e+00
-3.002000e-01 0.000000e+00
-3.001000e-01 0.000000e+00
-3.000000e-01 0.000000e+00
-2.999000e-01 0.000000e+00
-2.998000e-01 0.000000e+00
-2.997000e-01 0.000000e+00
-2.996000e-01 0.000000e+00
-2.995000e-01 0.000000e+00
-2.994000e-01 0.000000e+00
-2.993000e-01 0.000000e+00
-2.992000e-01 0.000000e+00
-2.991000e-01 0.000000e+00
-2.990000e-01 0.000000e+00
-2.989000e-01 0.000000e+00
-2.988000e-01 0.000000e+00
-2.987000e-01 0.000000e+00
-2.986000e-01 0.000000e+00
-2.985000e-01 0.000000e+00
-2.984000e-01 0.000000e+00
-2.983000e-01 0.000000e+00
-2.982000e-01 0.000000e+00
-2.981000e-01 0.000000e+00
-2.980000e-01 0.000000e+00
-2.979000e-01 0.000000e+00
-2.978000e-01 0.000000e+00
-2.977000e-01 0.000000e+00
-2.976000e-01 0.000000e+00
-2.975000e-01 0.000000e+00
-2.974000e-01 0.000000e+00
-2.973000e-01 0.000000e+00
-2.972000e-01 0.000000e+00
-2.971000e-01 0.000000e+00
-2.970000e-01 0.000000e+00
-2.969000e-01 0.000000e+00
-2.968000e-01 0.000000e+00
-2.967000e-01 0.000000e+00
-2.966000e-01 0.000000e+00
-2.965000e-01 0.000000e+00
-2.964000e-01 0.000000e+00
-2.963000e-01 0.000000e+00
-2.962000e-01 0.000000e+00
-2.961000e-01 0.000000e+00
-2.960000e-01 0.000000e+00
-2.959000e-01 0.000000e+00
-2.958000e-01 0.000000e+00
-2.957000e-01 0.000000e+00
-2.956000e-01 0.000000e+00
-2.955000e-01 0.000000e+00
-2.954000e-01 0.000000e+00
-2.953000e-01 0.000000e+00
-2.952000e-01 0.000000e+00
-2.951000e-01 0.000000e+00
-2.950000e-01 0.000000e+00
-2.949000e-01 0.000000e+00
-2.948000e-01 0.000000e+00
-2.947000e-01 0.000000e+00
-2.946000e-01 0.000000e+00
-2.945000e-01 0.000000e+00
-2.944000e-01 0.000000e+00
-2.943000e-01 0.000000e+00
-2.942000e-01 0.000000e+00
-2.941000e-01 0.000000e+00
-2.940000e-01 0.000000e+00
-2.939000e-01 0.000000e+00
-2.938000e-01 0.000000e+00
-2.937000e-01 0.000000e+00
-2.936000e-01 0.000000e+00
-2.935000e-01 0.000000e+00
-2.934000e-01 0.000000e+00
-2.933000e-01 0.000000e+00
-2.932000e-01 0.000000e+00
-2.931000e-01 0.000000e+00
-2.930000e-01 0.000000e+00
-2.929000e-01 0.000000e+00
-2.928000e-01 0.000000e+00
-2.927000e-01 0.000000e+00
-2.926000e-01 0.000000e+00
-2.925000e-01 0.000000e+00
-2.924000e-01 0.000000e+00
-2.923000e-01 0.000000e+00
-2.922000e-01 0.000000e+00
-2.921000e-01 0.000000e+00
-2.920000e-01 0.000000e+00
-2.919000e-01 0.000000e+00
-2.918000e-01 0.000000e+00
-2.917000e-01 0.000000e+00
-2.916000e-01 0.000000e+00
-2.915000e-01 0.000000e+00
-2.914000e-01 0.000000e+00
-2.913000e-01 0.000000e+00
-2.912000e-01 0.000000e+00
-2.911000e-01 0.000000e+00
-2.910000e-01 0.000000e+00
-2.909000e-01 0.000000e+00
-2.908000e-01 0.000000e+00
-2.907000e-01 0.000000e+00
-2.906000e-01 0.000000e+00
-2.905000e-01 0.000000e+00
-2.904000e-01 0.000000e+00
-2.903000e-01 0.000000e+00
-2.902000e-01 0.000000e+00
-2.901000e-01 0.000000e+00
-2.900000e-01 0.000000e+00
-2.899000e-01 0.000000e+00
-2.898000e-01 0.000000e+00
-2.897000e-01 0.000000e+00
-2.896000e-01 0.000000e+00
-2.895000e-01 0.000000e+00
-2.894000e-01 0.000000e+00
-2.893000e-01 0.000000e+00
-2.892000e-01 0.000000e+00
-2.891000e-01 0.000000e+00
-2.890000e-01 0.000000e+00