-1.200000e-01 0.000000e+00
-1.199000e-01 0.000000e+00
-1.198000e-01 0.000000e+00
-1.197000e-01 0.000000e+00
-1.196000e-01 0.000000e+00
-1.195000e-01 0.000000e+00
-1.194000e-01 0.000000e+00
-1.193000e-01 0.000000e+00
-1.192000e-01 0.000000e+00
-1.191000e-01 0.000000e+00
-1.190000e-01 0.000000e+00
-1.189000e-01 0.000000e+00
-1.188000e-01 0.000000e+00
-1.187000e-01 0.000000e+00
-1.186000e-01 0.000000e+00
-1.185000e-01 0.000000e+00
-1.184000e-01 0.000000e+00
-1.183000e-01 0.000000e+00
-1.182000e-01 0.000000e+00
-1.181000e-01 0.000000e+00
-1.180000e-01 0.000000e+00
-1.179000e-01 0.000000e+00
-1.178000e-01 0.000000e+00
-1.177000e-01 0.000000e+00
-1.176000e-01 0.000000e+00
-1.175000e-01 0.000000e+00
-1.174000e-01 0.000000e+00
-1.173000e-01 0.000000e+00
-1.172000e-01 0.000000e+00
-1.171000e-01 0.000000e+00
-1.170000e-01 0.000000e+00
-1.169000e-01 0.000000e+00
-1.168000e-01 0.000000e+00
-1.167000e-01 0.000000e+00
-1.166000e-01 0.000000e+00
-1.165000e-01 0.000000e+00
-1.164000e-01 0.000000e+00
-1.163000e-01 0.000000e+00
-1.162000e-01 0.000000e+00
-1.161000e-01 0.000000e+00
-1.160000e-01 0.000000e+00
-1.159000e-01 0.000000e+00
-1.158000e-01 0.000000e+00
-1.157000e-01 0.000000e+00
-1.156000e-01 0.000000e+00
-1.155000e-01 0.000000e+00
-1.154000e-01 0.000000e+00
-1.153000e-01 0.000000e+00
-1.152000e-01 0.000000e+00
-1.151000e-01 0.000000e+00
-1.150000e-01 0.000000e+00
-1.149000e-01 0.000000e+00
-1.148000e-01 0.000000e+00
-1.147000e-01 0.000000e+00
-1.146000e-01 0.000000e+00
-1.145000e-01 0.000000e+00
-1.144000e-01 0.000000e+00
-1.143000e-01 0.000000e+00
-1.142000e-01 0.000000e+00
-1.141000e-01 0.000000e+00
-1.140000e-01 0.000000e+00
-1.139000e-01 0.000000e+00
-1.138000e-01 0.000000e+00
-1.137000e-01 0.000000e+00
-1.136000e-01 0.000000e+00
-1.135000e-01 0.000000e+00
-1.134000e-01 0.000000e+00
-1.133000e-01 0.000000e+00
-1.132000e-01 0.000000e+00
-1.131000e-01 0.000000e+00
-1.130000e-01 0.000000e+00
-1.129000e-01 0.000000e+00
-1.128000e-01 0.000000e+00
-1.127000e-01 0.000000e+00
-1.126000e-01 0.000000e+00
-1.125000e-01 0.000000e+00
-1.124000e-01 0.000000e+00
-1.123000e-01 0.000000e+00
-1.122000e-01 0.000000e+00
-1.121000e-01 0.000000e+00
-1.120000e-01 0.000000e+00
-1.119000e-01 0.000000e+00
-1.118000e-01 0.000000e+00
-1.117000e-01 0.000000e+00
-1.116000e-01 0.000000e+00
-1.115000e-01 0.000000e+00
-1.114000e-01 0.000000e+00
-1.113000e-01 0.000000e+00
-1.112000e-01 0.000000e+00
-1.111000e-01 0.000000e+00
-1.110000e-01 0.000000e+00
-1.109000e-01 0.000000e+00
-1.108000e-01 0.000000e+00
-1.107000e-01 0.000000e+00
-1.106000e-01 0.000000e+00
-1.105000e-01 0.000000e+00
-1.104000e-01 0.000000e+00
-1.103000e-01 0.000000e+00
-1.102000e-01 0.000000e+00
-1.101000e-01 0.000000e+00
-1.100000e-01 0.000000e+00
-1.099000e-01 0.000000e+00
-1.098000e-01 0.000000e+00
-1.097000e-01 0.000000e+00
-1.096000e-01 0.000000e+00
-1.095000e-01 0.000000e+00
-1.094000e-01 0.000000e+00
-1.093000e-01 0.000000e+00
-1.092000e-01 0.000000e+00
-1.091000e-01 0.000000e+00
-1.090000e-01 0.000000e+00
-1.089000e-01 0.000000e+00
-1.088000e-01 0.000000e+00
-1.087000e-01 0.000000e+00
-1.086000e-01 0.000000e+00
-1.085000e-01 0.000000e+00
-1.084000e-01 0.000000e+00
-1.083000e-01 0.000000e+00
-1.082000e-01 0.000000e+00
-1.081000e-01 0.000000e+00
-1.080000e-01 0.000000e+00
-1.079000e-01 0.000000e+00
-1.078000e-01 0.000000e+00
-1.077000e-01 0.000000e+00
-1.076000e-01 0.000000e+00
-1.075000e-01 0.000000e+00
-1.074000e-01 0.000000e+00
-1.073000e-01 0.000000e+00
-1.072000e-01 0.000000e+00
-1.071000e-01 0.000000e+00
-1.070000e-01 0.000000e+00
-1.069000e-01 0.000000e+00
-1.068000e-01 0.000000e+00
-1.067000e-01 0.000000e+00
-1.066000e-01 0.000000e+00
-1.065000e-01 0.000000e+00
-1.064000e-01 0.000000e+00
-1.063000e-01 0.000000e+00
-1.062000e-01 0.000000e+00
-1.061000e-01 0.000000e+00
-1.060000e-01 0.000000e+00
-1.059000e-01 0.000000e+00
-1.058000e-01 0.000000e+00
-1.057000e-01 0.000000e+00
-1.056000e-01 0.000000e+00
-1.055000e-01 0.000000e+00
-1.054000e-01 0.000000e+00
-1.053000e-01 0.000000e+00
-1.052000e-01 0.000000e+00
-1.051000e-01 0.000000e+00
-1.050000e-01 0.000000e+00
-1.049000e-01 0.000000e+00
-1.048000e-01 0.000000e+00
-1.047000e-01 0.000000e+00
-1.046000e-01 0.000000e+00
-1.045000e-01 0.000000e+00
-1.044000e-01 0.000000e+00
-1.043000e-01 0.000000e+00
-1.042000e-01 0.000000e+00
-1.041000e-01 0.000000e+00
-1.040000e-01 0.000000e+00
-1.039000e-01 0.000000e+00
-1.038000e-01 0.000000e+00
-1.037000e-01 0.000000e+00
-1.036000e-01 0.000000e+00
-1.035000e-01 0.000000e+00
-1.034000e-01 0.000000e+00
-1.033000e-01 0.000000e+00
-1.032000e-01 0.000000e+00
-1.031000e-01 0.000000e+00
-1.030000e-01 0.000000e+00
-1.029000e-01 0.000000e+00
-1.028000e-01 0.000000e+00
-1.027000e-01 0.000000e+00
-1.026000e-01 0.000000e+00
-1.025000e-01 0.000000e+00
-1.024000e-01 0.000000e+00
-1.023000e-01 0.000000e+00
-1.022000e-01 0.000000e+00
-1.021000e-01 0.000000e+00
-1.020000e-01 0.000000e+00
-1.019000e-01 0.000000e+00
-1.018000e-01 0.000000e+00
-1.017000e-01 0.000000e+00
-1.016000e-01 0.000000e+00
-1.015000e-01 0.000000e+00
-1.014000e-01 0.000000e+00
-1.013000e-01 0.000000e+00
-1.012000e-01 0.000000e+00
-1.011000e-01 0.000000e+00
-1.010000e-01 0.000000e+00
-1.009000e-01 0.000000e+00
-1.008000e-01 0.000000e+00
-1.007000e-01 0.000000e+00
-1.006000e-01 0.000000e+00
-1.005000e-01 0.000000e+00
-1.004000e-01 0.000000e+00
-1.003000e-01 0.000000e+00
-1.002000e-01 0.000000e+00
-1.001000e-01 0.000000e+00
-1.000000e-01 0.000000e+00
-9.990001e-02 0.000000e+00
-9.980001e-02 0.000000e+00
-9.970000e-02 0.000000e+00
-9.960000e-02 0.000000e+00
-9.950001e-02 0.000000e+00
-9.940001e-02 0.000000e+00
-9.930000e-02 0.000000e+00
-9.920000e-02 0.000000e+00
-9.910001e-02 0.000000e+00
-9.900001e-02 0.000000e+00
-9.890001e-02 0.000000e+00
-9.880000e-02 0.000000e+00
-9.870000e-02 0.000000e+00
-9.860001e-02 0.000000e+00
-9.850001e-02 0.000000e+00
-9.840000e-02 0.000000e+00
-9.830001e-02 0.000000e+00
-9.820001e-02 0.000000e+00
-9.810001e-02 0.000000e+00
-9.800000e-02 0.000000e+00
-9.790000e-02 0.000000e+00
-9.780000e-02 0.000000e+00
-9.770001e-02 0.000000e+00
-9.760001e-02 0.000000e+00
-9.750000e-02 0.000000e+00
-9.740001e-02 0.000000e+00
-9.730001e-02 0.000000e+00
-9.720001e-02 0.000000e+00
-9.710000e-02 0.000000e+00
-9.700000e-02 0.000000e+00
-9.690000e-02 0.000000e+00
-9.680001e-02 0.000000e+00
-9.670001e-02 0.000000e+00
-9.660000e-02 0.000000e+00
-9.650001e-02 0.000000e+00
-9.640001e-02 0.000000e+00
-9.630001e-02 0.000000e+00
-9.620000e-02 0.000000e+00
-9.610000e-02 0.000000e+00
-9.600000e-02 0.000000e+00
-9.590001e-02 0.000000e+00
-9.580000e-02 0.000000e+00
-9.570000e-02 0.000000e+00
-9.560001e-02 0.000000e+00
-9.550001e-02 0.000000e+00
-9.540001e-02 0.000000e+00
-9.530000e-02 0.000000e+00
-9.520000e-02 0.000000e+00
-9.510001e-02 0.000000e+00
-9.500001e-02 0.000000e+00
-9.490000e-02 0.000000e+00
-9.480000e-02 0.000000e+00
-9.470001e-02 0.000000e+00
-9.460001e-02 0.000000e+00
-9.450001e-02 0.000000e+00
-9.440000e-02 0.000000e+00
-9.430000e-02 0.000000e+00
-9.420001e-02 0.000000e+00
-9.410001e-02 0.000000e+00
-9.400000e-02 0.000000e+00
-9.390001e-02 0.000000e+00
-9.380001e-02 0.000000e+00
-9.370001e-02 0.000000e+00
-9.360000e-02 0.000000e+00
-9.350000e-02 0.000000e+00
-9.340000e-02 0.000000e+00
-9.330001e-02 0.000000e+00
-9.320001e-02 0.000000e+00
-9.310000e-02 0.000000e+00
-9.300001e-02 0.000000e+00
-9.290001e-02 0.000000e+00
-9.280001e-02 0.000000e+00
-9.270000e-02 0.000000e+00
-9.260000e-02 0.000000e+00
-9.250000e-02 0.000000e+00
-9.240001e-02 0.000000e+00
-9.230001e-02 0.000000e+00
-9.220000e-02 0.000000e+00
-9.210001e-02 0.000000e+00
-9.200001e-02 0.000000e+00
-9.190001e-02 0.000000e+00
-9.180000e-02 0.000000e+00
-9.170000e-02 0.000000e+00
-9.160000e-02 0.000000e+00
-9.150001e-02 0.000000e+00
-9.140000e-02 0.000000e+00
-9.130000e-02 0.000000e+00
-9.120001e-02 0.000000e+00
-9.110001e-02 0.000000e+00
-9.100001e-02 0.000000e+00
-9.090000e-02 0.000000e+00
-9.080000e-02 0.000000e+00
-9.070001e-02 0.000000e+00
-9.060001e-02 0.000000e+00
-9.050000e-02 0.000000e+00
-9.040000e-02 0.000000e+00
-9.030001e-02 0.000000e+00
-9.020001e-02 0.000000e+00
-9.010001e-02 0.000000e+00
-9.000000e-02 0.000000e+00
-8.990000e-02 0.000000e+00
-8.980001e-02 0.000000e+00
-8.970001e-02 0.000000e+00
-8.960000e-02 0.000000e+00
-8.950001e-02 0.000000e+00
-8.940001e-02 0.000000e+00
-8.930001e-02 0.000000e+00
-8.920000e-02 0.000000e+00
-8.910000e-02 0.000000e+00
-8.900000e-02 0.000000e+00
-8.890001e-02 0.000000e+00
-8.880001e-02 0.000000e+00
-8.870000e-02 0.000000e+00
-8.860001e-02 0.000000e+00
-8.850001e-02 0.000000e+00
-8.840001e-02 0.000000e+00
-8.830000e-02 0.000000e+00
-8.820000e-02 0.000000e+00
-8.810000e-02 0.000000e+00
-8.800001e-02 0.000000e+00
-8.790001e-02 0.000000e+00
-8.780001e-02 0.000000e+00
-8.770001e-02 0.000000e+00
-8.760001e-02 0.000000e+00
-8.750001e-02 0.000000e+00
-8.740000e-02 0.000000e+00
-8.730000e-02 0.000000e+00
-8.720000e-02 0.000000e+00
-8.710001e-02 0.000000e+00
-8.700000e-02 0.000000e+00
-8.690001e-02 0.000000e+00
-8.680001e-02 0.000000e+00
-8.670001e-02 0.000000e+00
-8.660001e-02 0.000000e+00
-8.650000e-02 0.000000e+00
-8.640000e-02 0.000000e+00
-8.630000e-02 0.000000e+00
-8.620001e-02 0.000000e+00
-8.610000e-02 0.000000e+00
-8.600001e-02 0.000000e+00
-8.590001e-02 0.000000e+00
-8.580001e-02 0.000000e+00
-8.570001e-02 0.000000e+00
-8.560000e-02 0.000000e+00
-8.550000e-02 0.000000e+00
-8.540000e-02 0.000000e+00
-8.530001e-02 0.000000e+00
-8.520000e-02 0.000000e+00
-8.510001e-02 0.000000e+00
-8.500001e-02 0.000000e+00
-8.490001e-02 0.000000e+00
-8.480000e-02 0.000000e+00
-8.470000e-02 0.000000e+00
-8.460000e-02 0.000000e+00
-8.450001e-02 0.000000e+00
-8.440001e-02 0.000000e+00
-8.430000e-02 0.000000e+00
-8.420001e-02 0.000000e+00
-8.410001e-02 0.000000e+00
-8.400001e-02 0.000000e+00
-8.390000e-02 0.000000e+00
-8.380000e-02 0.000000e+00
-8.370000e-02 0.000000e+00
-8.360001e-02 0.000000e+00
-8.350001e-02 0.000000e+00
-8.340001e-02 0.000000e+00
-8.330001e-02 0.000000e+00
-8.320001e-02 0.000000e+00
-8.310001e-02 0.000000e+00
-8.300000e-02 0.000000e+00
-8.290000e-02 0.000000e+00
-8.280000e-02 0.000000e+00
-8.270001e-02 0.000000e+00
-8.260000e-02 0.000000e+00
-8.250001e-02 0.000000e+00
-8.240001e-02 0.000000e+00
-8.230001e-02 0.000000e+00
-8.220001e-02 0.000000e+00
-8.210000e-02 0.000000e+00
-8.200000e-02 0.000000e+00
-8.190000e-02 0.000000e+00
-8.180001e-02 0.000000e+00
-8.170000e-02 0.000000e+00
-8.160001e-02 0.000000e+00
-8.150001e-02 0.000000e+00
-8.140001e-02 0.000000e+00
-8.130001e-02 0.000000e+00
-8.120000e-02 0.000000e+00
-8.110000e-02 0.000000e+00
-8.100000e-02 0.000000e+00
-8.090001e-02 0.000000e+00
-8.080000e-02 0.000000e+00
-8.070001e-02 0.000000e+00
-8.060001e-02 0.000000e+00
-8.050001e-02 0.000000e+00
-8.040000e-02 0.000000e+00
-8.030000e-02 0.000000e+00
-8.020000e-02 0.000000e+00
-8.010001e-02 0.000000e+00
-8.000001e-02 0.000000e+00
-7.990000e-02 0.000000e+00
-7.980001e-02 0.000000e+00
-7.970001e-02 0.000000e+00
-7.960001e-02 0.000000e+00
-7.950000e-02 0.000000e+00
-7.940000e-02 0.000000e+00
-7.930000e-02 0.000000e+00
-7.920001e-02 0.000000e+00
-7.910001e-02 0.000000e+00
-7.900001e-02 0.000000e+00
-7.890001e-02 0.000000e+00
-7.880001e-02 0.000000e+00
-7.870001e-02 0.000000e+00
-7.860000e-02 0.000000e+00
-7.850000e-02 0.000000e+00
-7.840000e-02 0.000000e+00
-7.830001e-02 0.000000e+00
-7.820000e-02 0.000000e+00
-7.810001e-02 0.000000e+00
-7.800001e-02 0.000000e+00
-7.790001e-02 0.000000e+00
-7.780001e-02 0.000000e+00
-7.770000e-02 0.000000e+00
-7.760000e-02 0.000000e+00
-7.750000e-02 0.000000e+00
-7.740001e-02 0.000000e+00
-7.730000e-02 0.000000e+00
-7.720001e-02 0.000000e+00
-7.710001e-02 0.000000e+00
-7.700001e-02 0.000000e+00
-7.690001e-02 0.000000e+00
-7.680000e-02 0.000000e+00
-7.670000e-02 0.000000e+00
-7.660001e-02 0.000000e+00
-7.650001e-02 0.000000e+00
-7.640000e-02 0.000000e+00
-7.630001e-02 0.000000e+00
-7.620001e-02 0.000000e+00
-7.610001e-02 0.000000e+00
-7.600001e-02 0.000000e+00
-7.590000e-02 0.000000e+00
-7.580000e-02 0.000000e+00
-7.570001e-02 0.000000e+00
-7.560001e-02 0.000000e+00
-7.550001e-02 0.000000e+00
-7.540001e-02 0.000000e+00
-7.530001e-02 0.000000e+00
-7.520001e-02 0.000000e+00
-7.510000e-02 0.000000e+00
-7.500000e-02 0.000000e+00
-7.490000e-02 0.000000e+00
-7.480001e-02 0.000000e+00
-7.470001e-02 0.000000e+00
-7.460001e-02 0.000000e+00
-7.450001e-02 0.000000e+00
-7.440001e-02 0.000000e+00
-7.430001e-02 0.000000e+00
-7.420000e-02 1.401298e-45
-7.410000e-02 1.401298e-45
-7.400000e-02 1.401298e-45
-7.390001e-02 1.401298e-45
-7.380001e-02 1.401298e-45
-7.370001e-02 1.401298e-45
-7.360001e-02 0.000000e+00
-7.350001e-02 -1.401298e-45
-7.340001e-02 -2.802597e-45
-7.330000e-02 -5.605194e-45
-7.320000e-02 -8.407791e-45
-7.310000e-02 -1.121039e-44
-7.300001e-02 -1.401298e-44
-7.290000e-02 -1.681558e-44
-7.280001e-02 -1.821688e-44
-7.270001e-02 -1.681558e-44
-7.260001e-02 -1.401298e-44
-7.250001e-02 -8.407791e-45
-7.240000e-02 0.000000e+00
-7.230000e-02 1.121039e-44
-7.220001e-02 2.522337e-44
-7.210001e-02 4.203895e-44
-7.200000e-02 6.025583e-44
-7.190001e-02 8.127531e-44
-7.180001e-02 1.008935e-43
-7.170001e-02 1.205117e-43
-7.160001e-02 1.373272e-43
-7.150000e-02 1.485376e-43
-7.140000e-02 1.527415e-43
-7.130001e-02 1.485376e-43
-7.120001e-02 1.317221e-43
-7.110001e-02 9.949219e-44
-7.100001e-02 5.044674e-44
-7.090001e-02 -1.541428e-44
-7.080001e-02 -9.809089e-44
-7.070000e-02 -1.989844e-43
-7.060000e-02 -3.166935e-43
-7.050000e-02 -4.470142e-43
-7.040001e-02 -5.857428e-43
-7.030001e-02 -7.230700e-43
-7.020001e-02 -8.519895e-43
-7.010001e-02 -9.598894e-43
-7.000001e-02 -1.034158e-42
-6.990001e-02 -1.062184e-42
-6.980000e-02 -1.028553e-42
-6.970000e-02 -9.164492e-43
-6.960000e-02 -7.118596e-43
-6.950001e-02 -4.049753e-43
-6.940001e-02 1.401298e-44
-6.930001e-02 5.479077e-43
-6.920001e-02 1.193906e-42
-6.910001e-02 1.940798e-42
-6.900001e-02 2.767564e-42
-6.890000e-02 3.641975e-42
-6.880000e-02 4.521990e-42
-6.870000e-02 5.351559e-42
-6.860001e-02 6.062017e-42
-6.850000e-02 6.576294e-42
-6.840001e-02 6.810311e-42
-6.830001e-02 6.671582e-42
-6.820001e-02 6.070425e-42
-6.810001e-02 4.919959e-42
-6.800000e-02 3.148718e-42
-6.790000e-02 7.020505e-43
-6.780001e-02 -2.442463e-42
-6.770001e-02 -6.270811e-42
-6.760000e-02 -1.072554e-41
-6.750001e-02 -1.568614e-41
-6.740001e-02 -2.097604e-41
-6.730001e-02 -2.634721e-41
-6.720001e-02 -3.148297e-41
-6.710000e-02 -3.600076e-41
-6.700000e-02 -3.945356e-41
-6.690001e-02 -4.134952e-41
-6.680001e-02 -4.116314e-41
-6.670001e-02 -3.836615e-41
-6.660001e-02 -3.245688e-41
-6.650001e-02 -2.299671e-41
-6.640001e-02 -9.657749e-42
-6.630000e-02 7.735168e-42
-6.620000e-02 2.914280e-41
-6.610000e-02 5.427369e-41
-6.600001e-02 8.252947e-41
-6.590001e-02 1.129643e-40
-6.580001e-02 1.442623e-40
-6.570001e-02 1.747181e-40
-6.560001e-02 2.022494e-40
-6.550001e-02 2.244278e-40
-6.540000e-02 2.385430e-40
-6.530000e-02 2.417016e-40
-6.520000e-02 2.309494e-40
-6.510001e-02 2.034489e-40
-6.500001e-02 1.566750e-40
-6.490001e-02 8.865034e-41
-6.480001e-02 -1.806274e-42
-6.470001e-02 -1.148014e-40
-6.460001e-02 -2.491046e-40
-6.450000e-02 -4.018882e-40
-6.440000e-02 -5.685152e-40
-6.430000e-02 -7.423701e-40
-6.420001e-02 -9.147774e-40
-6.410000e-02 -1.075030e-39
-6.400001e-02 -1.210531e-39
-6.390001e-02 -1.307105e-39
-6.380001e-02 -1.349455e-39
-6.370001e-02 -1.321825e-39
-6.360000e-02 -1.208823e-39
-6.350000e-02 -9.964297e-40
-6.340001e-02 -6.731740e-40
-6.330001e-02 -2.314216e-40
-6.320000e-02 3.312515e-40
-6.310001e-02 1.010670e-39
-6.300001e-02 1.794734e-39
-6.290001e-02 2.662264e-39
-6.280001e-02 3.582090e-39
-6.270000e-02 4.512545e-39
-6.260000e-02 5.401441e-39
-6.250001e-02 6.186675e-39
-6.240001e-02 6.797560e-39
-6.230001e-02 7.156968e-39
-6.220001e-02 7.184359e-39
-6.210000e-02 6.799718e-39
-6.200001e-02 5.928364e-39
-6.190000e-02 4.506572e-39
-6.180001e-02 2.487844e-39
-6.170001e-02 -1.503733e-40
-6.160001e-02 -3.399840e-39
-6.150001e-02 -7.214879e-39
-6.140001e-02 -1.150641e-38
-6.130001e-02 -1.613713e-38
-6.120001e-02 -2.091843e-38
-6.110001e-02 -2.560952e-38
-6.100000e-02 -2.991950e-38
-6.090001e-02 -3.351270e-38
-6.080000e-02 -3.601785e-38
-6.070001e-02 -3.704144e-38
-6.060001e-02 -3.618526e-38
-6.050001e-02 -3.306835e-38
-6.040001e-02 -2.735267e-38
-6.030001e-02 -1.877227e-38
-6.020001e-02 -7.164665e-39
-6.010001e-02 7.496524e-39
-6.000001e-02 2.506961e-38
-5.990001e-02 4.521528e-38
-5.980001e-02 6.737182e-38
-5.970000e-02 9.073748e-38
-5.960001e-02 1.142627e-37
-5.950001e-02 1.366547e-37
-5.940001e-02 1.563969e-37
-5.930001e-02 1.717851e-37
-5.920001e-02 1.809832e-37
-5.910001e-02 1.820969e-37
-5.900001e-02 1.732686e-37
-5.890001e-02 1.527899e-37
-5.880001e-02 1.192305e-37
-5.870001e-02 7.157945e-38
-5.860000e-02 9.393212e-39
-5.850001e-02 -6.705560e-38
-5.840001e-02 -1.566380e-37
-5.830001e-02 -2.572461e-37
-5.820001e-02 -3.656989e-37
-5.810001e-02 -4.776882e-37
-5.800001e-02 -5.877753e-37
-5.790001e-02 -6.894514e-37
-5.780001e-02 -7.752689e-37
-5.770001e-02 -8.370545e-37
-5.760001e-02 -8.662074e-37
-5.750000e-02 -8.540842e-37
-5.740000e-02 -7.924690e-37
-5.730001e-02 -6.741185e-37
-5.720001e-02 -4.933681e-37
-5.710001e-02 -2.467794e-37
-5.700000e-02 6.619960e-38
-5.690001e-02 4.425949e-37
-5.680001e-02 8.753272e-37
-5.670001e-02 1.352737e-36
-5.660000e-02 1.858262e-36
-5.650000e-02 2.370321e-36
-5.640001e-02 2.862439e-36
-5.630001e-02 3.303679e-36
-5.620001e-02 3.659398e-36
-5.610000e-02 3.892368e-36
-5.600001e-02 3.964262e-36
-5.590001e-02 3.837519e-36
-5.580001e-02 3.477539e-36
-5.570000e-02 2.855170e-36
-5.560001e-02 1.949414e-36
-5.550001e-02 7.502390e-37
-5.540001e-02 -7.386326e-37
-5.530000e-02 -2.497106e-36
-5.520000e-02 -4.486453e-36
-5.510001e-02 -6.647603e-36
-5.500001e-02 -8.900180e-36
-5.490001e-02 -1.114250e-35
-5.480000e-02 -1.325272e-35
-5.470001e-02 -1.509127e-35
-5.460001e-02 -1.650479e-35
-5.450001e-02 -1.733156e-35
-5.440000e-02 -1.740841e-35
-5.430000e-02 -1.657925e-35
-5.420001e-02 -1.470470e-35
-5.410001e-02 -1.167298e-35
-5.400001e-02 -7.411287e-36
-5.390000e-02 -1.897472e-36
-5.380001e-02 4.828699e-36
-5.370001e-02 1.265538e-35
-5.360001e-02 2.139028e-35
-5.350000e-02 3.075493e-35
-5.340001e-02 4.038241e-35
-5.330001e-02 4.981932e-35
-5.320001e-02 5.853266e-35
-5.310000e-02 6.592239e-35
-5.300000e-02 7.133984e-35
-5.290001e-02 7.411233e-35
-5.280001e-02 7.357389e-35
-5.270001e-02 6.910151e-35
-5.260000e-02 6.015616e-35
-5.250001e-02 4.632738e-35
-5.240001e-02 2.737961e-35
-5.230001e-02 3.298381e-36
-5.220000e-02 -2.566628e-35
-5.210000e-02 -5.896195e-35
-5.200001e-02 -9.570445e-35
-5.190001e-02 -1.346602e-34
-5.180001e-02 -1.742435e-34
-5.170000e-02 -2.125316e-34
-5.160001e-02 -2.473001e-34
-5.150001e-02 -2.760809e-34
-5.140001e-02 -2.962438e-34
-5.130000e-02 -3.051014e-34
-5.120001e-02 -3.000380e-34
-5.110001e-02 -2.786575e-34
-5.100001e-02 -2.389486e-34
-5.090000e-02 -1.794610e-34
-5.080000e-02 -9.948581e-35
-5.070001e-02 7.696389e-37
-5.060001e-02 1.200201e-34
-5.050001e-02 2.557675e-34
-5.040000e-02 4.042022e-34
-5.030001e-02 5.601543e-34
-5.020001e-02 7.171052e-34
-5.010001e-02 8.672705e-34
-5.000000e-02 1.001763e-33
-4.990001e-02 1.110844e-33
-4.980001e-02 1.184258e-33
-4.970001e-02 1.211665e-33
-4.960001e-02 1.183148e-33
-4.950000e-02 1.089794e-33
-4.940001e-02 9.243322e-34
-4.930001e-02 6.818010e-34
-4.920001e-02 3.602218e-34
-4.910000e-02 -3.875873e-35
-4.900001e-02 -5.092926e-34
-4.890001e-02 -1.040864e-33
-4.880001e-02 -1.617974e-33
-4.870000e-02 -2.220025e-33
-4.860000e-02 -2.821431e-33
-4.850001e-02 -3.392017e-33
-4.840001e-02 -3.897701e-33
-4.830001e-02 -4.301511e-33
-4.820000e-02 -4.564923e-33
-4.810001e-02 -4.649507e-33
-4.800001e-02 -4.518878e-33
-4.790001e-02 -4.140872e-33
-4.780000e-02 -3.489907e-33
-4.770001e-02 -2.549426e-33
-4.760001e-02 -1.314320e-33
-4.750001e-02 2.067907e-34
-4.740001e-02 1.989572e-33
-4.730000e-02 3.992415e-33
-4.720001e-02 6.155470e-33
-4.710001e-02 8.400418e-33
-4.700001e-02 1.063112e-32
-4.690000e-02 1.273529e-32
-4.680001e-02 1.458719e-32
-4.670001e-02 1.605155e-32
-4.660001e-02 1.698858e-32
-4.650000e-02 1.726009e-32
-4.640000e-02 1.673657e-32
-4.630001e-02 1.530510e-32
-4.620001e-02 1.287771e-32
-4.610001e-02 9.400083e-33
-4.600000e-02 4.859922e-33
-4.590001e-02 -7.051860e-34
-4.580001e-02 -7.201103e-33
-4.570001e-02 -1.447209e-32
-4.560000e-02 -2.229791e-32
-4.550001e-02 -3.039368e-32
-4.540001e-02 -3.841272e-32
-4.530001e-02 -4.595310e-32
-4.520001e-02 -5.256783e-32
-4.510000e-02 -5.777904e-32
-4.500001e-02 -6.109610e-32
-4.490001e-02 -6.203722e-32
-4.480001e-02 -6.015448e-32
-4.470000e-02 -5.506116e-32
-4.460001e-02 -4.646079e-32
-4.450001e-02 -3.417657e-32
-4.440001e-02 -1.817988e-32
-4.430000e-02 1.383694e-33
-4.420000e-02 2.417245e-32
-4.410001e-02 4.963258e-32
-4.400001e-02 7.698983e-32
-4.390001e-02 1.052504e-31
-4.380000e-02 1.332125e-31
-4.370001e-02 1.594905e-31
-4.360001e-02 1.825505e-31
-4.350001e-02 2.007606e-31
-4.340000e-02 2.124526e-31
-4.330001e-02 2.159962e-31
-4.320001e-02 2.098838e-31
-4.310001e-02 1.928216e-31
-4.300001e-02 1.638274e-31
-4.290000e-02 1.223269e-31
-4.280001e-02 6.824791e-32
-4.270001e-02 2.104505e-33
-4.260001e-02 -7.493310e-32
-4.250000e-02 -1.609886e-31
-4.240001e-02 -2.534558e-31
-4.230001e-02 -3.490053e-31
-4.220001e-02 -4.436271e-31
-4.210000e-02 -5.327127e-31
-4.200000e-02 -6.111777e-31
-4.190001e-02 -6.736276e-31
-4.180001e-02 -7.145637e-31
-4.170001e-02 -7.286266e-31
-4.160000e-02 -7.108721e-31
-4.150001e-02 -6.570694e-31
-4.140001e-02 -5.640135e-31
-4.130001e-02 -4.298378e-31
-4.120000e-02 -2.543112e-31
-4.110001e-02 -3.910609e-32
-4.100001e-02 2.119839e-31
-4.090001e-02 4.928903e-31
-4.080001e-02 7.952014e-31
-4.070000e-02 1.108192e-30
-4.060001e-02 1.418968e-30
-4.050001e-02 1.712734e-30
-4.040001e-02 1.973193e-30
-4.030000e-02 2.183073e-30
-4.020001e-02 2.324791e-30
-4.010001e-02 2.381218e-30
-4.000001e-02 2.336554e-30
-3.990000e-02 2.177265e-30
-3.980000e-02 1.893058e-30
-3.970001e-02 1.477857e-30
-3.960001e-02 9.307235e-31
-3.950001e-02 2.566851e-31
-3.940000e-02 -5.325978e-31
-3.930001e-02 -1.418368e-30
-3.920001e-02 -2.374567e-30
-3.910001e-02 -3.367948e-30
-3.900000e-02 -4.358523e-30
-3.890001e-02 -5.300409e-30
-3.880001e-02 -6.143060e-30
-3.870001e-02 -6.832901e-30
-3.860001e-02 -7.315352e-30
-3.850000e-02 -7.537192e-30
-3.840001e-02 -7.449208e-30
-3.830001e-02 -7.009061e-30
-3.820001e-02 -6.184245e-30
-3.810000e-02 -4.955038e-30
-3.800001e-02 -3.317292e-30
-3.790001e-02 -1.284915e-30
-3.780001e-02 1.108108e-30
-3.770000e-02 3.806333e-30
-3.760000e-02 6.732249e-30
-3.750001e-02 9.786598e-30
-3.740001e-02 1.284974e-29
-3.730001e-02 1.578416e-29
-3.720000e-02 1.843812e-29
-3.710001e-02 2.065055e-29
-3.700001e-02 2.225700e-29
-3.690001e-02 2.309666e-29
-3.680000e-02 2.302021e-29
-3.670001e-02 2.189823e-29
-3.660001e-02 1.962996e-29
-3.650001e-02 1.615196e-29
-3.640001e-02 1.144636e-29
-3.630000e-02 5.548121e-30
-3.620001e-02 -1.448967e-30
-3.610001e-02 -9.388204e-30
-3.600001e-02 -1.804812e-29
-3.590000e-02 -2.714332e-29
-3.580001e-02 -3.632832e-29
-3.570001e-02 -4.520468e-29
-3.560001e-02 -5.333149e-29
-3.550000e-02 -6.023930e-29
-3.540000e-02 -6.544720e-29
-3.530001e-02 -6.848291e-29
-3.520001e-02 -6.890518e-29
-3.510001e-02 -6.632796e-29
-3.500000e-02 -6.044537e-29
-3.490001e-02 -5.105662e-29
-3.480001e-02 -3.808951e-29
-3.470001e-02 -2.162151e-29
-3.460000e-02 -1.896877e-30
-3.450001e-02 2.066121e-29
-3.440001e-02 4.544504e-29
-3.430001e-02 7.166412e-29
-3.420001e-02 9.835552e-29
-3.410000e-02 1.244032e-28
-3.400001e-02 1.485668e-28
-3.390001e-02 1.695201e-28
-3.380001e-02 1.858984e-28
-3.370000e-02 1.963539e-28
-3.360001e-02 1.996178e-28
-3.350001e-02 1.945676e-28
-3.340001e-02 1.802965e-28
-3.330000e-02 1.561827e-28
-3.320001e-02 1.219549e-28
-3.310001e-02 7.775197e-29
-3.300001e-02 2.417082e-29
-3.290001e-02 -3.769831e-29
-3.280000e-02 -1.062546e-28
-3.270001e-02 -1.793893e-28
-3.260001e-02 -2.545119e-28
-3.250001e-02 -3.286002e-28
-3.240000e-02 -3.982766e-28
-3.230001e-02 -4.599103e-28
-3.220001e-02 -5.097439e-28
-3.210001e-02 -5.440416e-28
-3.200001e-02 -5.592567e-28
-3.190000e-02 -5.522124e-28
-3.180001e-02 -5.202890e-28
-3.170001e-02 -4.616117e-28
-3.160001e-02 -3.752299e-28
-3.150000e-02 -2.612783e-28
-3.140001e-02 -1.211116e-28
-3.130001e-02 4.259688e-29
-3.120001e-02 2.258027e-28
-3.110000e-02 4.230902e-28
-3.100001e-02 6.277335e-28
-3.090001e-02 8.318219e-28
-3.080001e-02 1.026454e-27
-3.070001e-02 1.201998e-27
-3.060000e-02 1.348422e-27
-3.050001e-02 1.455674e-27
-3.040001e-02 1.514124e-27
-3.030001e-02 1.515031e-27
-3.020000e-02 1.451036e-27
-3.010001e-02 1.316658e-27
-3.000001e-02 1.108766e-27
-2.990001e-02 8.270116e-28
-2.980001e-02 4.741909e-28
-2.970000e-02 5.651738e-29
-2.960001e-02 -4.162210e-28
-2.950001e-02 -9.306408e-28
-2.940001e-02 -1.469895e-27
-2.930000e-02 -2.013972e-27
-2.920001e-02 -2.540168e-27
-2.910001e-02 -3.023736e-27
-2.900001e-02 -3.438702e-27
-2.890000e-02 -3.758834e-27
-2.880001e-02 -3.958737e-27
-2.870001e-02 -4.015058e-27
-2.860001e-02 -3.907732e-27
-2.850001e-02 -3.621252e-27
-2.840000e-02 -3.145887e-27
-2.830001e-02 -2.478805e-27
-2.820001e-02 -1.625027e-27
-2.810001e-02 -5.981627e-28
-2.800000e-02 5.791359e-28
-2.790001e-02 1.875059e-27
-2.780001e-02 3.248900e-27
-2.770001e-02 4.651734e-27
-2.760001e-02 6.027529e-27
-2.750000e-02 7.314690e-27
-2.740001e-02 8.448039e-27
-2.730001e-02 9.361167e-27
-2.720001e-02 9.989129e-27
-2.710000e-02 1.027139e-26
-2.700001e-02 1.015492e-26
-2.690001e-02 9.597370e-27
-2.680001e-02 8.570091e-27
-2.670000e-02 7.060993e-27
-2.660001e-02 5.076991e-27
-2.650001e-02 2.645928e-27
-2.640001e-02 -1.821649e-28
-2.630001e-02 -3.334618e-27
-2.620000e-02 -6.716584e-27
-2.610001e-02 -1.021249e-26
-2.600001e-02 -1.368857e-26
-2.590001e-02 -1.699641e-26
-2.580000e-02 -1.997759e-26
-2.570001e-02 -2.246921e-26
-2.560001e-02 -2.431033e-26
-2.550001e-02 -2.534895e-26
-2.540001e-02 -2.544948e-26
-2.530000e-02 -2.450036e-26
-2.520001e-02 -2.242145e-26
-2.510001e-02 -1.917104e-26
-2.500001e-02 -1.475186e-26
-2.490000e-02 -9.216052e-27
-2.480001e-02 -2.668475e-27
-2.470001e-02 4.731773e-27
-2.460001e-02 1.277199e-26
-2.450000e-02 2.118881e-26
-2.440001e-02 2.967367e-26
-2.430001e-02 3.788071e-26
-2.420001e-02 4.543715e-26
-2.410001e-02 5.195594e-26
-2.400000e-02 5.705048e-26
-2.390001e-02 6.035077e-26
-2.380001e-02 6.152078e-26
-2.370001e-02 6.027626e-26
-2.360000e-02 5.640232e-26
-2.350001e-02 4.976999e-26
-2.340001e-02 4.035102e-26
-2.330001e-02 2.823012e-26
-2.320001e-02 1.361371e-26
-2.310000e-02 -3.165435e-27
-2.300001e-02 -2.164825e-26
-2.290001e-02 -4.125484e-26
-2.280001e-02 -6.129555e-26
-2.270000e-02 -8.098779e-26
-2.260001e-02 -9.947866e-26
-2.250001e-02 -1.158729e-25
-2.240001e-02 -1.292655e-25
-2.230000e-02 -1.387790e-25
-2.220001e-02 -1.436023e-25
-2.210001e-02 -1.430324e-25
-2.200001e-02 -1.365152e-25
-2.190001e-02 -1.236847e-25
-2.180000e-02 -1.043985e-25
-2.170001e-02 -7.876798e-26
-2.160001e-02 -4.718082e-26
-2.150001e-02 -1.031407e-26
-2.140000e-02 3.086324e-26
-2.130001e-02 7.509977e-26
-2.120001e-02 1.208847e-25
-2.110001e-02 1.664837e-25
-2.100001e-02 2.099889e-25
-2.090000e-02 2.493809e-25
-2.080001e-02 2.826028e-25
-2.070001e-02 3.076432e-25
-2.060001e-02 3.226260e-25
-2.050000e-02 3.259041e-25
-2.040001e-02 3.161523e-25
-2.030001e-02 2.924565e-25
-2.020001e-02 2.543936e-25
-2.010000e-02 2.020985e-25
-2.000001e-02 1.363134e-25
-1.990001e-02 5.841553e-26
-1.980001e-02 -2.957954e-26
-1.970001e-02 -1.250425e-25
-1.960000e-02 -2.247832e-25
-1.950001e-02 -3.251332e-25
-1.940001e-02 -4.220554e-25
-1.930001e-02 -5.112804e-25
-1.920000e-02 -5.884627e-25
-1.910001e-02 -6.493551e-25
-1.900001e-02 -6.899910e-25
-1.890001e-02 -7.068706e-25
-1.880001e-02 -6.971413e-25
-1.870000e-02 -6.587639e-25
-1.860001e-02 -5.906584e-25
-1.850001e-02 -4.928203e-25
-1.840001e-02 -3.664022e-25
-1.830000e-02 -2.137554e-25
-1.820001e-02 -3.842894e-26
-1.810001e-02 1.548761e-25
-1.800001e-02 3.603955e-25
-1.790000e-02 5.714321e-25
-1.780001e-02 7.805236e-25
-1.770001e-02 9.796425e-25
-1.760001e-02 1.160422e-24
-1.750001e-02 1.314403e-24
-1.740000e-02 1.433297e-24
-1.730001e-02 1.509255e-24
-1.720001e-02 1.535149e-24
-1.710001e-02 1.504850e-24
-1.700000e-02 1.413515e-24
-1.690001e-02 1.257866e-24
-1.680001e-02 1.036483e-24
-1.670001e-02 7.500748e-25
-1.660001e-02 4.017592e-25
-1.650001e-02 -2.683902e-27
-1.640001e-02 -4.545856e-25
-1.630001e-02 -9.422117e-25
-1.620001e-02 -1.450662e-24
-1.610000e-02 -1.961878e-24
-1.600001e-02 -2.454790e-24
-1.590001e-02 -2.905655e-24
-1.580001e-02 -3.288610e-24
-1.570000e-02 -3.576483e-24
-1.560001e-02 -3.741892e-24
-1.550001e-02 -3.758619e-24
-1.540001e-02 -3.603272e-24
-1.530001e-02 -3.257173e-24
-1.520000e-02 -2.708411e-24
-1.510001e-02 -1.953943e-24
-1.500001e-02 -1.001606e-24
-1.490001e-02 1.281375e-25
-1.480000e-02 1.400924e-24
-1.470001e-02 2.767889e-24
-1.460001e-02 4.165971e-24
-1.450001e-02 5.519289e-24
-1.440001e-02 6.741761e-24
-1.430001e-02 7.741037e-24
-1.420001e-02 8.423723e-24
-1.410001e-02 8.701802e-24
-1.400001e-02 8.499965e-24
-1.390000e-02 7.763489e-24
-1.380001e-02 6.466119e-24
-1.370001e-02 4.617316e-24
-1.360001e-02 2.268131e-24
-1.350001e-02 -4.850988e-25
-1.340001e-02 -3.499978e-24
-1.330001e-02 -6.590931e-24
-1.320001e-02 -9.536248e-24
-1.310001e-02 -1.208958e-23
-1.300000e-02 -1.399586e-23
-1.290001e-02 -1.501118e-23
-1.280001e-02 -1.492575e-23
-1.270001e-02 -1.358859e-23
-1.260000e-02 -1.093211e-23
-1.250001e-02 -6.994365e-24
-1.240001e-02 -1.936574e-24
-1.230001e-02 3.946826e-24
-1.220001e-02 1.022802e-23
-1.210001e-02 1.635776e-23
-1.200001e-02 2.169100e-23
-1.190001e-02 2.552692e-23
-1.180001e-02 2.716282e-23
-1.170000e-02 2.596008e-23
-1.160001e-02 2.141894e-23
-1.150001e-02 1.325705e-23
-1.140001e-02 1.485588e-24
-1.130001e-02 -1.352464e-23
-1.120001e-02 -3.099539e-23
-1.110001e-02 -4.972013e-23
-1.100001e-02 -6.807804e-23
-1.090001e-02 -8.408968e-23
-1.080000e-02 -9.551878e-23
-1.070001e-02 -1.000214e-22
-1.060001e-02 -9.533981e-23
-1.050001e-02 -7.953394e-23
-1.040000e-02 -5.123774e-23
-1.030001e-02 -9.923394e-24
-1.020001e-02 4.384883e-23