-1.200000e-01 0.000000e+00
-1.199000e-01 0.000000e+00
-1.198000e-01 0.000000e+00
-1.197000e-01 0.000000e+00
-1.196000e-01 0.000000e+00
-1.195000e-01 0.000000e+00
-1.194000e-01 0.000000e+00
-1.193000e-01 0.000000e+00
-1.192000e-01 0.000000e+00
-1.191000e-01 0.000000e+00
-1.190000e-01 0.000000e+00
-1.189000e-01 0.000000e+00
-1.188000e-01 0.000000e+00
-1.187000e-01 0.000000e+00
-1.186000e-01 0.000000e+00
-1.185000e-01 0.000000e+00
-1.184000e-01 0.000000e+00
-1.183000e-01 0.000000e+00
-1.182000e-01 0.000000e+00
-1.181000e-01 0.000000e+00
-1.180000e-01 0.000000e+00
-1.179000e-01 0.000000e+00
-1.178000e-01 0.000000e+00
-1.177000e-01 0.000000e+00
-1.176000e-01 0.000000e+00
-1.175000e-01 0.000000e+00
-1.174000e-01 0.000000e+00
-1.173000e-01 0.000000e+00
-1.172000e-01 0.000000e+00
-1.171000e-01 0.000000e+00
-1.170000e-01 0.000000e+00
-1.169000e-01 0.000000e+00
-1.168000e-01 0.000000e+00
-1.167000e-01 0.000000e+00
-1.166000e-01 0.000000e+00
-1.165000e-01 0.000000e+00
-1.164000e-01 0.000000e+00
-1.163000e-01 0.000000e+00
-1.162000e-01 0.000000e+00
-1.161000e-01 0.000000e+00
-1.160000e-01 0.000000e+00
-1.159000e-01 0.000000e+00
-1.158000e-01 0.000000e+00
-1.157000e-01 0.000000e+00
-1.156000e-01 0.000000e+00
-1.155000e-01 0.000000e+00
-1.154000e-01 0.000000e+00
-1.153000e-01 0.000000e+00
-1.152000e-01 0.000000e+00
-1.151000e-01 0.000000e+00
-1.150000e-01 0.000000e+00
-1.149000e-01 0.000000e+00
-1.148000e-01 0.000000e+00
-1.147000e-01 0.000000e+00
-1.146000e-01 0.000000e+00
-1.145000e-01 0.000000e+00
-1.144000e-01 0.000000e+00
-1.143000e-01 0.000000e+00
-1.142000e-01 0.000000e+00
-1.141000e-01 0.000000e+00
-1.140000e-01 0.000000e+00
-1.139000e-01 0.000000e+00
-1.138000e-01 0.000000e+00
-1.137000e-01 0.000000e+00
-1.136000e-01 0.000000e+00
-1.135000e-01 0.000000e+00
-1.134000e-01 0.000000e+00
-1.133000e-01 0.000000e+00
-1.132000e-01 0.000000e+00
-1.131000e-01 0.000000e+00
-1.130000e-01 0.000000e+00
-1.129000e-01 0.000000e+00
-1.128000e-01 0.000000e+00
-1.127000e-01 0.000000e+00
-1.126000e-01 0.000000e+00
-1.125000e-01 0.000000e+00
-1.124000e-01 0.000000e+00
-1.123000e-01 0.000000e+00
-1.122000e-01 0.000000e+00
-1.121000e-01 0.000000e+00
-1.120000e-01 0.000000e+00
-1.119000e-01 0.000000e+00
-1.118000e-01 0.000000e+00
-1.117000e-01 0.000000e+00
-1.116000e-01 0.000000e+00
-1.115000e-01 0.000000e+00
-1.114000e-01 0.000000e+00
-1.113000e-01 0.000000e+00
-1.112000e-01 0.000000e+00
-1.111000e-01 0.000000e+00
-1.110000e-01 0.000000e+00
-1.109000e-01 0.000000e+00
-1.108000e-01 0.000000e+00
-1.107000e-01 0.000000e+00
-1.106000e-01 0.000000e+00
-1.105000e-01 0.000000e+00
-1.104000e-01 0.000000e+00
-1.103000e-01 0.000000e+00
-1.102000e-01 0.000000e+00
-1.101000e-01 0.000000e+00
-1.100000e-01 0.000000e+00
-1.099000e-01 0.000000e+00
-1.098000e-01 0.000000e+00
-1.097000e-01 0.000000e+00
-1.096000e-01 0.000000e+00
-1.095000e-01 0.000000e+00
-1.094000e-01 0.000000e+00
-1.093000e-01 0.000000e+00
-1.092000e-01 0.000000e+00
-1.091000e-01 0.000000e+00
-1.090000e-01 0.000000e+00
-1.089000e-01 0.000000e+00
-1.088000e-01 0.000000e+00
-1.087000e-01 0.000000e+00
-1.086000e-01 0.000000e+00
-1.085000e-01 0.000000e+00
-1.084000e-01 0.000000e+00
-1.083000e-01 0.000000e+00
-1.082000e-01 0.000000e+00
-1.081000e-01 0.000000e+00
-1.080000e-01 0.000000e+00
-1.079000e-01 0.000000e+00
-1.078000e-01 0.000000e+00
-1.077000e-01 0.000000e+00
-1.076000e-01 0.000000e+00
-1.075000e-01 0.000000e+00
-1.074000e-01 0.000000e+00
-1.073000e-01 0.000000e+00
-1.072000e-01 0.000000e+00
-1.071000e-01 0.000000e+00
-1.070000e-01 0.000000e+00
-1.069000e-01 0.000000e+00
-1.068000e-01 0.000000e+00
-1.067000e-01 0.000000e+00
-1.066000e-01 0.000000e+00
-1.065000e-01 0.000000e+00
-1.064000e-01 0.000000e+00
-1.063000e-01 0.000000e+00
-1.062000e-01 0.000000e+00
-1.061000e-01 0.000000e+00
-1.060000e-01 0.000000e+00
-1.059000e-01 0.000000e+00
-1.058000e-01 0.000000e+00
-1.057000e-01 0.000000e+00
-1.056000e-01 0.000000e+00
-1.055000e-01 0.000000e+00
-1.054000e-01 0.000000e+00
-1.053000e-01 0.000000e+00
-1.052000e-01 0.000000e+00
-1.051000e-01 0.000000e+00
-1.050000e-01 0.000000e+00
-1.049000e-01 0.000000e+00
-1.048000e-01 0.000000e+00
-1.047000e-01 0.000000e+00
-1.046000e-01 0.000000e+00
-1.045000e-01 0.000000e+00
-1.044000e-01 0.000000e+00
-1.043000e-01 0.000000e+00
-1.042000e-01 0.000000e+00
-1.041000e-01 0.000000e+00
-1.040000e-01 0.000000e+00
-1.039000e-01 0.000000e+00
-1.038000e-01 0.000000e+00
-1.037000e-01 0.000000e+00
-1.036000e-01 0.000000e+00
-1.035000e-01 0.000000e+00
-1.034000e-01 0.000000e+00
-1.033000e-01 0.000000e+00
-1.032000e-01 0.000000e+00
-1.031000e-01 0.000000e+00
-1.030000e-01 0.000000e+00
-1.029000e-01 0.000000e+00
-1.028000e-01 0.000000e+00
-1.027000e-01 0.000000e+00
-1.026000e-01 0.000000e+00
-1.025000e-01 0.000000e+00
-1.024000e-01 0.000000e+00
-1.023000e-01 0.000000e+00
-1.022000e-01 0.000000e+00
-1.021000e-01 0.000000e+00
-1.020000e-01 0.000000e+00
-1.019000e-01 0.000000e+00
-1.018000e-01 0.000000e+00
-1.017000e-01 0.000000e+00
-1.016000e-01 0.000000e+00
-1.015000e-01 0.000000e+00
-1.014000e-01 0.000000e+00
-1.013000e-01 0.000000e+00
-1.012000e-01 0.000000e+00
-1.011000e-01 0.000000e+00
-1.010000e-01 0.000000e+00
-1.009000e-01 0.000000e+00
-1.008000e-01 0.000000e+00
-1.007000e-01 0.000000e+00
-1.006000e-01 0.000000e+00
-1.005000e-01 0.000000e+00
-1.004000e-01 0.000000e+00
-1.003000e-01 0.000000e+00
-1.002000e-01 0.000000e+00
-1.001000e-01 0.000000e+00
-1.000000e-01 0.000000e+00
-9.990001e-02 0.000000e+00
-9.980001e-02 0.000000e+00
-9.970000e-02 0.000000e+00
-9.960000e-02 0.000000e+00
-9.950001e-02 0.000000e+00
-9.940001e-02 0.000000e+00
-9.930000e-02 0.000000e+00
-9.920000e-02 0.000000e+00
-9.910001e-02 0.000000e+00
-9.900001e-02 0.000000e+00
-9.890001e-02 0.000000e+00
-9.880000e-02 0.000000e+00
-9.870000e-02 0.000000e+00
-9.860001e-02 0.000000e+00
-9.850001e-02 0.000000e+00
-9.840000e-02 0.000000e+00
-9.830001e-02 0.000000e+00
-9.820001e-02 0.000000e+00
-9.810001e-02 0.000000e+00
-9.800000e-02 0.000000e+00
-9.790000e-02 0.000000e+00
-9.780000e-02 0.000000e+00
-9.770001e-02 0.000000e+00
-9.760001e-02 0.000000e+00
-9.750000e-02 0.000000e+00
-9.740001e-02 0.000000e+00
-9.730001e-02 0.000000e+00
-9.720001e-02 0.000000e+00
-9.710000e-02 0.000000e+00
-9.700000e-02 0.000000e+00
-9.690000e-02 0.000000e+00
-9.680001e-02 0.000000e+00
-9.670001e-02 0.000000e+00
-9.660000e-02 0.000000e+00
-9.650001e-02 0.000000e+00
-9.640001e-02 0.000000e+00
-9.630001e-02 0.000000e+00
-9.620000e-02 0.000000e+00
-9.610000e-02 0.000000e+00
-9.600000e-02 0.000000e+00
-9.590001e-02 0.000000e+00
-9.580000e-02 0.000000e+00
-9.570000e-02 0.000000e+00
-9.560001e-02 0.000000e+00
-9.550001e-02 0.000000e+00
-9.540001e-02 0.000000e+00
-9.530000e-02 0.000000e+00
-9.520000e-02 0.000000e+00
-9.510001e-02 0.000000e+00
-9.500001e-02 0.000000e+00
-9.490000e-02 0.000000e+00
-9.480000e-02 0.000000e+00
-9.470001e-02 0.000000e+00
-9.460001e-02 0.000000e+00
-9.450001e-02 0.000000e+00
-9.440000e-02 0.000000e+00
-9.430000e-02 0.000000e+00
-9.420001e-02 0.000000e+00
-9.410001e-02 0.000000e+00
-9.400000e-02 0.000000e+00
-9.390001e-02 0.000000e+00
-9.380001e-02 0.000000e+00
-9.370001e-02 0.000000e+00
-9.360000e-02 0.000000e+00
-9.350000e-02 0.000000e+00
-9.340000e-02 0.000000e+00
-9.330001e-02 0.000000e+00
-9.320001e-02 0.000000e+00
-9.310000e-02 0.000000e+00
-9.300001e-02 0.000000e+00
-9.290001e-02 0.000000e+00
-9.280001e-02 0.000000e+00
-9.270000e-02 0.000000e+00
-9.260000e-02 0.000000e+00
-9.250000e-02 0.000000e+00
-9.240001e-02 0.000000e+00
-9.230001e-02 0.000000e+00
-9.220000e-02 0.000000e+00
-9.210001e-02 0.000000e+00
-9.200001e-02 0.000000e+00
-9.190001e-02 0.000000e+00
-9.180000e-02 0.000000e+00
-9.170000e-02 0.000000e+00
-9.160000e-02 0.000000e+00
-9.150001e-02 0.000000e+00
-9.140000e-02 0.000000e+00
-9.130000e-02 0.000000e+00
-9.120001e-02 0.000000e+00
-9.110001e-02 0.000000e+00
-9.100001e-02 0.000000e+00
-9.090000e-02 0.000000e+00
-9.080000e-02 0.000000e+00
-9.070001e-02 0.000000e+00
-9.060001e-02 0.000000e+00
-9.050000e-02 0.000000e+00
-9.040000e-02 0.000000e+00
-9.030001e-02 0.000000e+00
-9.020001e-02 0.000000e+00
-9.010001e-02 0.000000e+00
-9.000000e-02 0.000000e+00
-8.990000e-02 0.000000e+00
-8.980001e-02 0.000000e+00
-8.970001e-02 0.000000e+00
-8.960000e-02 0.000000e+00
-8.950001e-02 0.000000e+00
-8.940001e-02 0.000000e+00
-8.930001e-02 0.000000e+00
-8.920000e-02 0.000000e+00
-8.910000e-02 0.000000e+00
-8.900000e-02 0.000000e+00
-8.890001e-02 0.000000e+00
-8.880001e-02 0.000000e+00
-8.870000e-02 0.000000e+00
-8.860001e-02 0.000000e+00
-8.850001e-02 0.000000e+00
-8.840001e-02 0.000000e+00
-8.830000e-02 0.000000e+00
-8.820000e-02 0.000000e+00
-8.810000e-02 0.000000e+00
-8.800001e-02 0.000000e+00
-8.790001e-02 0.000000e+00
-8.780001e-02 0.000000e+00
-8.770001e-02 0.000000e+00
-8.760001e-02 0.000000e+00
-8.750001e-02 0.000000e+00
-8.740000e-02 0.000000e+00
-8.730000e-02 0.000000e+00
-8.720000e-02 0.000000e+00
-8.710001e-02 0.000000e+00
-8.700000e-02 0.000000e+00
-8.690001e-02 0.000000e+00
-8.680001e-02 0.000000e+00
-8.670001e-02 0.000000e+00
-8.660001e-02 0.000000e+00
-8.650000e-02 0.000000e+00
-8.640000e-02 0.000000e+00
-8.630000e-02 0.000000e+00
-8.620001e-02 0.000000e+00
-8.610000e-02 0.000000e+00
-8.600001e-02 0.000000e+00
-8.590001e-02 0.000000e+00
-8.580001e-02 0.000000e+00
-8.570001e-02 0.000000e+00
-8.560000e-02 0.000000e+00
-8.550000e-02 0.000000e+00
-8.540000e-02 0.000000e+00
-8.530001e-02 0.000000e+00
-8.520000e-02 0.000000e+00
-8.510001e-02 0.000000e+00
-8.500001e-02 0.000000e+00
-8.490001e-02 0.000000e+00
-8.480000e-02 0.000000e+00
-8.470000e-02 0.000000e+00
-8.460000e-02 0.000000e+00
-8.450001e-02 0.000000e+00
-8.440001e-02 0.000000e+00
-8.430000e-02 0.000000e+00
-8.420001e-02 0.000000e+00
-8.410001e-02 0.000000e+00
-8.400001e-02 0.000000e+00
-8.390000e-02 0.000000e+00
-8.380000e-02 0.000000e+00
-8.370000e-02 0.000000e+00
-8.360001e-02 0.000000e+00
-8.350001e-02 0.000000e+00
-8.340001e-02 0.000000e+00
-8.330001e-02 0.000000e+00
-8.320001e-02 0.000000e+00
-8.310001e-02 0.000000e+00
-8.300000e-02 0.000000e+00
-8.290000e-02 0.000000e+00
-8.280000e-02 0.000000e+00
-8.270001e-02 0.000000e+00
-8.260000e-02 0.000000e+00
-8.250001e-02 0.000000e+00
-8.240001e-02 0.000000e+00
-8.230001e-02 0.000000e+00
-8.220001e-02 0.000000e+00
-8.210000e-02 0.000000e+00
-8.200000e-02 0.000000e+00
-8.190000e-02 0.000000e+00
-8.180001e-02 0.000000e+00
-8.170000e-02 0.000000e+00
-8.160001e-02 0.000000e+00
-8.150001e-02 0.000000e+00
-8.140001e-02 0.000000e+00
-8.130001e-02 0.000000e+00
-8.120000e-02 0.000000e+00
-8.110000e-02 0.000000e+00
-8.100000e-02 0.000000e+00
-8.090001e-02 0.000000e+00
-8.080000e-02 0.000000e+00
-8.070001e-02 0.000000e+00
-8.060001e-02 0.000000e+00
-8.050001e-02 0.000000e+00
-8.040000e-02 0.000000e+00
-8.030000e-02 0.000000e+00
-8.020000e-02 0.000000e+00
-8.010001e-02 0.000000e+00
-8.000001e-02 0.000000e+00
-7.990000e-02 0.000000e+00
-7.980001e-02 0.000000e+00
-7.970001e-02 0.000000e+00
-7.960001e-02 0.000000e+00
-7.950000e-02 0.000000e+00
-7.940000e-02 0.000000e+00
-7.930000e-02 0.000000e+00
-7.920001e-02 0.000000e+00
-7.910001e-02 0.000000e+00
-7.900001e-02 0.000000e+00
-7.890001e-02 0.000000e+00
-7.880001e-02 0.000000e+00
-7.870001e-02 0.000000e+00
-7.860000e-02 0.000000e+00
-7.850000e-02 0.000000e+00
-7.840000e-02 0.000000e+00
-7.830001e-02 0.000000e+00
-7.820000e-02 0.000000e+00
-7.810001e-02 0.000000e+00
-7.800001e-02 0.000000e+00
-7.790001e-02 0.000000e+00
-7.780001e-02 0.000000e+00
-7.770000e-02 0.000000e+00
-7.760000e-02 0.000000e+00
-7.750000e-02 0.000000e+00
-7.740001e-02 0.000000e+00
-7.730000e-02 0.000000e+00
-7.720001e-02 0.000000e+00
-7.710001e-02 0.000000e+00
-7.700001e-02 0.000000e+00
-7.690001e-02 0.000000e+00
-7.680000e-02 0.000000e+00
-7.670000e-02 0.000000e+00
-7.660001e-02 0.000000e+00
-7.650001e-02 0.000000e+00
-7.640000e-02 0.000000e+00
-7.630001e-02 0.000000e+00
-7.620001e-02 0.000000e+00
-7.610001e-02 0.000000e+00
-7.600001e-02 0.000000e+00
-7.590000e-02 0.000000e+00
-7.580000e-02 0.000000e+00
-7.570001e-02 0.000000e+00
-7.560001e-02 0.000000e+00
-7.550001e-02 0.000000e+00
-7.540001e-02 0.000000e+00
-7.530001e-02 0.000000e+00
-7.520001e-02 0.000000e+00
-7.510000e-02 0.000000e+00
-7.500000e-02 0.000000e+00
-7.490000e-02 0.000000e+00
-7.480001e-02 0.000000e+00
-7.470001e-02 0.000000e+00
-7.460001e-02 0.000000e+00
-7.450001e-02 0.000000e+00
-7.440001e-02 0.000000e+00
-7.430001e-02 0.000000e+00
-7.420000e-02 0.000000e+00
-7.410000e-02 0.000000e+00
-7.400000e-02 0.000000e+00
-7.390001e-02 0.000000e+00
-7.380001e-02 0.000000e+00
-7.370001e-02 0.000000e+00
-7.360001e-02 0.000000e+00
-7.350001e-02 0.000000e+00
-7.340001e-02 0.000000e+00
-7.330000e-02 0.000000e+00
-7.320000e-02 0.000000e+00
-7.310000e-02 0.000000e+00
-7.300001e-02 0.000000e+00
-7.290000e-02 0.000000e+00
-7.280001e-02 0.000000e+00
-7.270001e-02 0.000000e+00
-7.260001e-02 0.000000e+00
-7.250001e-02 0.000000e+00
-7.240000e-02 0.000000e+00
-7.230000e-02 0.000000e+00
-7.220001e-02 0.000000e+00
-7.210001e-02 0.000000e+00
-7.200000e-02 0.000000e+00
-7.190001e-02 0.000000e+00
-7.180001e-02 0.000000e+00
-7.170001e-02 0.000000e+00
-7.160001e-02 0.000000e+00
-7.150000e-02 0.000000e+00
-7.140000e-02 0.000000e+00
-7.130001e-02 0.000000e+00
-7.120001e-02 0.000000e+00
-7.110001e-02 0.000000e+00
-7.100001e-02 0.000000e+00
-7.090001e-02 0.000000e+00
-7.080001e-02 0.000000e+00
-7.070000e-02 0.000000e+00
-7.060000e-02 0.000000e+00
-7.050000e-02 0.000000e+00
-7.040001e-02 0.000000e+00
-7.030001e-02 0.000000e+00
-7.020001e-02 0.000000e+00
-7.010001e-02 0.000000e+00
-7.000001e-02 0.000000e+00
-6.990001e-02 0.000000e+00
-6.980000e-02 0.000000e+00
-6.970000e-02 0.000000e+00
-6.960000e-02 0.000000e+00
-6.950001e-02 0.000000e+00
-6.940001e-02 0.000000e+00
-6.930001e-02 0.000000e+00
-6.920001e-02 0.000000e+00
-6.910001e-02 0.000000e+00
-6.900001e-02 0.000000e+00
-6.890000e-02 0.000000e+00
-6.880000e-02 0.000000e+00
-6.870000e-02 0.000000e+00
-6.860001e-02 0.000000e+00
-6.850000e-02 0.000000e+00
-6.840001e-02 0.000000e+00
-6.830001e-02 0.000000e+00
-6.820001e-02 0.000000e+00
-6.810001e-02 0.000000e+00
-6.800000e-02 0.000000e+00
-6.790000e-02 0.000000e+00
-6.780001e-02 0.000000e+00
-6.770001e-02 0.000000e+00
-6.760000e-02 0.000000e+00
-6.750001e-02 0.000000e+00
-6.740001e-02 0.000000e+00
-6.730001e-02 0.000000e+00
-6.720001e-02 0.000000e+00
-6.710000e-02 0.000000e+00
-6.700000e-02 0.000000e+00
-6.690001e-02 0.000000e+00
-6.680001e-02 0.000000e+00
-6.670001e-02 0.000000e+00
-6.660001e-02 0.000000e+00
-6.650001e-02 0.000000e+00
-6.640001e-02 0.000000e+00
-6.630000e-02 0.000000e+00
-6.620000e-02 0.000000e+00
-6.610000e-02 0.000000e+00
-6.600001e-02 0.000000e+00
-6.590001e-02 0.000000e+00
-6.580001e-02 0.000000e+00
-6.570001e-02 0.000000e+00
-6.560001e-02 0.000000e+00
-6.550001e-02 0.000000e+00
-6.540000e-02 0.000000e+00
-6.530000e-02 0.000000e+00
-6.520000e-02 0.000000e+00
-6.510001e-02 0.000000e+00
-6.500001e-02 0.000000e+00
-6.490001e-02 0.000000e+00
-6.480001e-02 0.000000e+00
-6.470001e-02 0.000000e+00
-6.460001e-02 0.000000e+00
-6.450000e-02 0.000000e+00
-6.440000e-02 0.000000e+00
-6.430000e-02 0.000000e+00
-6.420001e-02 0.000000e+00
-6.410000e-02 0.000000e+00
-6.400001e-02 0.000000e+00
-6.390001e-02 0.000000e+00
-6.380001e-02 0.000000e+00
-6.370001e-02 0.000000e+00
-6.360000e-02 0.000000e+00
-6.350000e-02 0.000000e+00
-6.340001e-02 0.000000e+00
-6.330001e-02 0.000000e+00
-6.320000e-02 0.000000e+00
-6.310001e-02 0.000000e+00
-6.300001e-02 0.000000e+00
-6.290001e-02 0.000000e+00
-6.280001e-02 0.000000e+00
-6.270000e-02 0.000000e+00
-6.260000e-02 0.000000e+00
-6.250001e-02 0.000000e+00
-6.240001e-02 0.000000e+00
-6.230001e-02 0.000000e+00
-6.220001e-02 0.000000e+00
-6.210000e-02 0.000000e+00
-6.200001e-02 0.000000e+00
-6.190000e-02 0.000000e+00
-6.180001e-02 0.000000e+00
-6.170001e-02 0.000000e+00
-6.160001e-02 0.000000e+00
-6.150001e-02 0.000000e+00
-6.140001e-02 0.000000e+00
-6.130001e-02 0.000000e+00
-6.120001e-02 0.000000e+00
-6.110001e-02 0.000000e+00
-6.100000e-02 0.000000e+00
-6.090001e-02 0.000000e+00
-6.080000e-02 0.000000e+00
-6.070001e-02 0.000000e+00
-6.060001e-02 0.000000e+00
-6.050001e-02 0.000000e+00
-6.040001e-02 0.000000e+00
-6.030001e-02 0.000000e+00
-6.020001e-02 0.000000e+00
-6.010001e-02 0.000000e+00
-6.000001e-02 0.000000e+00
-5.990001e-02 0.000000e+00
-5.980001e-02 0.000000e+00
-5.970000e-02 0.000000e+00
-5.960001e-02 0.000000e+00
-5.950001e-02 0.000000e+00
-5.940001e-02 0.000000e+00
-5.930001e-02 0.000000e+00
-5.920001e-02 0.000000e+00
-5.910001e-02 0.000000e+00
-5.900001e-02 0.000000e+00
-5.890001e-02 0.000000e+00
-5.880001e-02 0.000000e+00
-5.870001e-02 0.000000e+00
-5.860000e-02 0.000000e+00
-5.850001e-02 0.000000e+00
-5.840001e-02 0.000000e+00
-5.830001e-02 0.000000e+00
-5.820001e-02 0.000000e+00
-5.810001e-02 0.000000e+00
-5.800001e-02 0.000000e+00
-5.790001e-02 0.000000e+00
-5.780001e-02 0.000000e+00
-5.770001e-02 0.000000e+00
-5.760001e-02 0.000000e+00
-5.750000e-02 0.000000e+00
-5.740000e-02 0.000000e+00
-5.730001e-02 0.000000e+00
-5.720001e-02 0.000000e+00
-5.710001e-02 0.000000e+00
-5.700000e-02 0.000000e+00
-5.690001e-02 0.000000e+00
-5.680001e-02 0.000000e+00
-5.670001e-02 0.000000e+00
-5.660000e-02 0.000000e+00
-5.650000e-02 0.000000e+00
-5.640001e-02 0.000000e+00
-5.630001e-02 0.000000e+00
-5.620001e-02 0.000000e+00
-5.610000e-02 0.000000e+00
-5.600001e-02 0.000000e+00
-5.590001e-02 0.000000e+00
-5.580001e-02 0.000000e+00
-5.570000e-02 0.000000e+00
-5.560001e-02 0.000000e+00
-5.550001e-02 0.000000e+00
-5.540001e-02 0.000000e+00
-5.530000e-02 0.000000e+00
-5.520000e-02 0.000000e+00
-5.510001e-02 0.000000e+00
-5.500001e-02 0.000000e+00
-5.490001e-02 0.000000e+00
-5.480000e-02 0.000000e+00
-5.470001e-02 0.000000e+00
-5.460001e-02 0.000000e+00
-5.450001e-02 0.000000e+00
-5.440000e-02 0.000000e+00
-5.430000e-02 0.000000e+00
-5.420001e-02 0.000000e+00
-5.410001e-02 0.000000e+00
-5.400001e-02 0.000000e+00
-5.390000e-02 0.000000e+00
-5.380001e-02 0.000000e+00
-5.370001e-02 0.000000e+00
-5.360001e-02 0.000000e+00
-5.350000e-02 0.000000e+00
-5.340001e-02 0.000000e+00
-5.330001e-02 0.000000e+00
-5.320001e-02 0.000000e+00
-5.310000e-02 0.000000e+00
-5.300000e-02 0.000000e+00
-5.290001e-02 0.000000e+00
-5.280001e-02 0.000000e+00
-5.270001e-02 0.000000e+00
-5.260000e-02 0.000000e+00
-5.250001e-02 0.000000e+00
-5.240001e-02 0.000000e+00
-5.230001e-02 0.000000e+00
-5.220000e-02 0.000000e+00
-5.210000e-02 0.000000e+00
-5.200001e-02 0.000000e+00
-5.190001e-02 0.000000e+00
-5.180001e-02 0.000000e+00
-5.170000e-02 0.000000e+00
-5.160001e-02 0.000000e+00
-5.150001e-02 0.000000e+00
-5.140001e-02 0.000000e+00
-5.130000e-02 0.000000e+00
-5.120001e-02 0.000000e+00
-5.110001e-02 0.000000e+00
-5.100001e-02 0.000000e+00
-5.090000e-02 0.000000e+00
-5.080000e-02 0.000000e+00
-5.070001e-02 0.000000e+00
-5.060001e-02 0.000000e+00
-5.050001e-02 0.000000e+00
-5.040000e-02 0.000000e+00
-5.030001e-02 0.000000e+00
-5.020001e-02 0.000000e+00
-5.010001e-02 0.000000e+00
-5.000000e-02 0.000000e+00
-4.990001e-02 0.000000e+00
-4.980001e-02 0.000000e+00
-4.970001e-02 0.000000e+00
-4.960001e-02 0.000000e+00
-4.950000e-02 0.000000e+00
-4.940001e-02 0.000000e+00
-4.930001e-02 0.000000e+00
-4.920001e-02 0.000000e+00
-4.910000e-02 0.000000e+00
-4.900001e-02 0.000000e+00
-4.890001e-02 0.000000e+00
-4.880001e-02 0.000000e+00
-4.870000e-02 0.000000e+00
-4.860000e-02 0.000000e+00
-4.850001e-02 0.000000e+00
-4.840001e-02 0.000000e+00
-4.830001e-02 0.000000e+00
-4.820000e-02 0.000000e+00
-4.810001e-02 0.000000e+00
-4.800001e-02 0.000000e+00
-4.790001e-02 0.000000e+00
-4.780000e-02 0.000000e+00
-4.770001e-02 0.000000e+00
-4.760001e-02 0.000000e+00
-4.750001e-02 0.000000e+00
-4.740001e-02 0.000000e+00
-4.730000e-02 0.000000e+00
-4.720001e-02 0.000000e+00
-4.710001e-02 0.000000e+00
-4.700001e-02 0.000000e+00
-4.690000e-02 0.000000e+00
-4.680001e-02 0.000000e+00
-4.670001e-02 0.000000e+00
-4.660001e-02 0.000000e+00
-4.650000e-02 0.000000e+00
-4.640000e-02 0.000000e+00
-4.630001e-02 0.000000e+00
-4.620001e-02 0.000000e+00
-4.610001e-02 0.000000e+00
-4.600000e-02 0.000000e+00
-4.590001e-02 0.000000e+00
-4.580001e-02 0.000000e+00
-4.570001e-02 0.000000e+00
-4.560000e-02 0.000000e+00
-4.550001e-02 0.000000e+00
-4.540001e-02 0.000000e+00
-4.530001e-02 0.000000e+00
-4.520001e-02 0.000000e+00
-4.510000e-02 0.000000e+00
-4.500001e-02 0.000000e+00
-4.490001e-02 0.000000e+00
-4.480001e-02 0.000000e+00
-4.470000e-02 0.000000e+00
-4.460001e-02 0.000000e+00
-4.450001e-02 0.000000e+00
-4.440001e-02 0.000000e+00
-4.430000e-02 0.000000e+00
-4.420000e-02 0.000000e+00
-4.410001e-02 0.000000e+00
-4.400001e-02 0.000000e+00
-4.390001e-02 0.000000e+00
-4.380000e-02 0.000000e+00
-4.370001e-02 0.000000e+00
-4.360001e-02 0.000000e+00
-4.350001e-02 0.000000e+00
-4.340000e-02 0.000000e+00
-4.330001e-02 0.000000e+00
-4.320001e-02 0.000000e+00
-4.310001e-02 0.000000e+00
-4.300001e-02 0.000000e+00
-4.290000e-02 0.000000e+00
-4.280001e-02 0.000000e+00
-4.270001e-02 0.000000e+00
-4.260001e-02 0.000000e+00
-4.250000e-02 0.000000e+00
-4.240001e-02 0.000000e+00
-4.230001e-02 0.000000e+00
-4.220001e-02 0.000000e+00
-4.210000e-02 0.000000e+00
-4.200000e-02 0.000000e+00
-4.190001e-02 0.000000e+00
-4.180001e-02 0.000000e+00
-4.170001e-02 0.000000e+00
-4.160000e-02 0.000000e+00
-4.150001e-02 0.000000e+00
-4.140001e-02 0.000000e+00
-4.130001e-02 0.000000e+00
-4.120000e-02 0.000000e+00
-4.110001e-02 0.000000e+00
-4.100001e-02 0.000000e+00
-4.090001e-02 0.000000e+00
-4.080001e-02 0.000000e+00
-4.070000e-02 0.000000e+00
-4.060001e-02 0.000000e+00
-4.050001e-02 0.000000e+00
-4.040001e-02 0.000000e+00
-4.030000e-02 0.000000e+00
-4.020001e-02 0.000000e+00
-4.010001e-02 0.000000e+00
-4.000001e-02 0.000000e+00
-3.990000e-02 0.000000e+00
-3.980000e-02 0.000000e+00
-3.970001e-02 0.000000e+00
-3.960001e-02 0.000000e+00
-3.950001e-02 0.000000e+00
-3.940000e-02 0.000000e+00
-3.930001e-02 0.000000e+00
-3.920001e-02 0.000000e+00
-3.910001e-02 0.000000e+00
-3.900000e-02 0.000000e+00
-3.890001e-02 0.000000e+00
-3.880001e-02 0.000000e+00
-3.870001e-02 0.000000e+00
-3.860001e-02 0.000000e+00
-3.850000e-02 0.000000e+00
-3.840001e-02 0.000000e+00
-3.830001e-02 0.000000e+00
-3.820001e-02 0.000000e+00
-3.810000e-02 0.000000e+00
-3.800001e-02 0.000000e+00
-3.790001e-02 0.000000e+00
-3.780001e-02 0.000000e+00
-3.770000e-02 0.000000e+00
-3.760000e-02 0.000000e+00
-3.750001e-02 0.000000e+00
-3.740001e-02 0.000000e+00
-3.730001e-02 0.000000e+00
-3.720000e-02 0.000000e+00
-3.710001e-02 0.000000e+00
-3.700001e-02 0.000000e+00
-3.690001e-02 0.000000e+00
-3.680000e-02 0.000000e+00
-3.670001e-02 0.000000e+00
-3.660001e-02 0.000000e+00
-3.650001e-02 0.000000e+00
-3.640001e-02 0.000000e+00
-3.630000e-02 0.000000e+00
-3.620001e-02 0.000000e+00
-3.610001e-02 0.000000e+00
-3.600001e-02 0.000000e+00
-3.590000e-02 0.000000e+00
-3.580001e-02 0.000000e+00
-3.570001e-02 0.000000e+00
-3.560001e-02 0.000000e+00
-3.550000e-02 0.000000e+00
-3.540000e-02 0.000000e+00
-3.530001e-02 0.000000e+00
-3.520001e-02 0.000000e+00
-3.510001e-02 0.000000e+00
-3.500000e-02 0.000000e+00
-3.490001e-02 0.000000e+00
-3.480001e-02 0.000000e+00
-3.470001e-02 0.000000e+00
-3.460000e-02 0.000000e+00
-3.450001e-02 0.000000e+00
-3.440001e-02 0.000000e+00
-3.430001e-02 0.000000e+00
-3.420001e-02 0.000000e+00
-3.410000e-02 0.000000e+00
-3.400001e-02 0.000000e+00
-3.390001e-02 0.000000e+00
-3.380001e-02 0.000000e+00
-3.370000e-02 0.000000e+00
-3.360001e-02 0.000000e+00
-3.350001e-02 0.000000e+00
-3.340001e-02 0.000000e+00
-3.330000e-02 0.000000e+00
-3.320001e-02 0.000000e+00
-3.310001e-02 0.000000e+00
-3.300001e-02 0.000000e+00
-3.290001e-02 0.000000e+00
-3.280000e-02 0.000000e+00
-3.270001e-02 0.000000e+00
-3.260001e-02 0.000000e+00
-3.250001e-02 0.000000e+00
-3.240000e-02 0.000000e+00
-3.230001e-02 0.000000e+00
-3.220001e-02 0.000000e+00
-3.210001e-02 0.000000e+00
-3.200001e-02 0.000000e+00
-3.190000e-02 0.000000e+00
-3.180001e-02 0.000000e+00
-3.170001e-02 0.000000e+00
-3.160001e-02 0.000000e+00
-3.150000e-02 0.000000e+00
-3.140001e-02 0.000000e+00
-3.130001e-02 0.000000e+00
-3.120001e-02 0.000000e+00
-3.110000e-02 0.000000e+00
-3.100001e-02 0.000000e+00
-3.090001e-02 0.000000e+00
-3.080001e-02 0.000000e+00
-3.070001e-02 0.000000e+00
-3.060000e-02 0.000000e+00
-3.050001e-02 0.000000e+00
-3.040001e-02 0.000000e+00
-3.030001e-02 0.000000e+00
-3.020000e-02 0.000000e+00
-3.010001e-02 0.000000e+00
-3.000001e-02 0.000000e+00
-2.990001e-02 0.000000e+00
-2.980001e-02 0.000000e+00
-2.970000e-02 0.000000e+00
-2.960001e-02 0.000000e+00
-2.950001e-02 0.000000e+00
-2.940001e-02 0.000000e+00
-2.930000e-02 0.000000e+00
-2.920001e-02 0.000000e+00
-2.910001e-02 0.000000e+00
-2.900001e-02 0.000000e+00
-2.890000e-02 0.000000e+00
-2.880001e-02 0.000000e+00
-2.870001e-02 0.000000e+00
-2.860001e-02 0.000000e+00
-2.850001e-02 0.000000e+00
-2.840000e-02 0.000000e+00
-2.830001e-02 0.000000e+00
-2.820001e-02 0.000000e+00
-2.810001e-02 0.000000e+00
-2.800000e-02 0.000000e+00
-2.790001e-02 0.000000e+00
-2.780001e-02 0.000000e+00
-2.770001e-02 0.000000e+00
-2.760001e-02 0.000000e+00
-2.750000e-02 0.000000e+00
-2.740001e-02 0.000000e+00
-2.730001e-02 0.000000e+00
-2.720001e-02 0.000000e+00
-2.710000e-02 0.000000e+00
-2.700001e-02 0.000000e+00
-2.690001e-02 0.000000e+00
-2.680001e-02 0.000000e+00
-2.670000e-02 0.000000e+00
-2.660001e-02 0.000000e+00
-2.650001e-02 0.000000e+00
-2.640001e-02 0.000000e+00
-2.630001e-02 0.000000e+00
-2.620000e-02 0.000000e+00
-2.610001e-02 0.000000e+00
-2.600001e-02 0.000000e+00
-2.590001e-02 0.000000e+00
-2.580000e-02 0.000000e+00
-2.570001e-02 0.000000e+00
-2.560001e-02 0.000000e+00
-2.550001e-02 0.000000e+00
-2.540001e-02 0.000000e+00
-2.530000e-02 0.000000e+00
-2.520001e-02 0.000000e+00
-2.510001e-02 0.000000e+00
-2.500001e-02 0.000000e+00
-2.490000e-02 0.000000e+00
-2.480001e-02 0.000000e+00
-2.470001e-02 0.000000e+00
-2.460001e-02 0.000000e+00
-2.450000e-02 0.000000e+00
-2.440001e-02 0.000000e+00
-2.430001e-02 0.000000e+00
-2.420001e-02 0.000000e+00
-2.410001e-02 0.000000e+00
-2.400000e-02 0.000000e+00
-2.390001e-02 0.000000e+00
-2.380001e-02 0.000000e+00
-2.370001e-02 0.000000e+00
-2.360000e-02 0.000000e+00
-2.350001e-02 0.000000e+00
-2.340001e-02 0.000000e+00
-2.330001e-02 0.000000e+00
-2.320001e-02 0.000000e+00
-2.310000e-02 0.000000e+00
-2.300001e-02 0.000000e+00
-2.290001e-02 0.000000e+00
-2.280001e-02 0.000000e+00
-2.270000e-02 0.000000e+00
-2.260001e-02 0.000000e+00
-2.250001e-02 0.000000e+00
-2.240001e-02 0.000000e+00
-2.230000e-02 0.000000e+00
-2.220001e-02 0.000000e+00
-2.210001e-02 0.000000e+00
-2.200001e-02 0.000000e+00
-2.190001e-02 0.000000e+00
-2.180000e-02 0.000000e+00
-2.170001e-02 0.000000e+00
-2.160001e-02 0.000000e+00
-2.150001e-02 0.000000e+00
-2.140000e-02 0.000000e+00
-2.130001e-02 0.000000e+00
-2.120001e-02 0.000000e+00
-2.110001e-02 0.000000e+00
-2.100001e-02 0.000000e+00
-2.090000e-02 0.000000e+00
-2.080001e-02 0.000000e+00
-2.070001e-02 0.000000e+00
-2.060001e-02 0.000000e+00
-2.050000e-02 0.000000e+00
-2.040001e-02 0.000000e+00
-2.030001e-02 0.000000e+00
-2.020001e-02 0.000000e+00
-2.010000e-02 0.000000e+00
-2.000001e-02 0.000000e+00
-1.990001e-02 0.000000e+00
-1.980001e-02 0.000000e+00
-1.970001e-02 0.000000e+00
-1.960000e-02 0.000000e+00
-1.950001e-02 0.000000e+00
-1.940001e-02 0.000000e+00
-1.930001e-02 0.000000e+00
-1.920000e-02 0.000000e+00
-1.910001e-02 0.000000e+00
-1.900001e-02 0.000000e+00
-1.890001e-02 0.000000e+00
-1.880001e-02 0.000000e+00
-1.870000e-02 0.000000e+00
-1.860001e-02 0.000000e+00
-1.850001e-02 0.000000e+00
-1.840001e-02 0.000000e+00
-1.830000e-02 0.000000e+00
-1.820001e-02 0.000000e+00
-1.810001e-02 0.000000e+00
-1.800001e-02 0.000000e+00
-1.790000e-02 0.000000e+00
-1.780001e-02 0.000000e+00
-1.770001e-02 0.000000e+00
-1.760001e-02 0.000000e+00
-1.750001e-02 0.000000e+00
-1.740000e-02 0.000000e+00
-1.730001e-02 0.000000e+00
-1.720001e-02 0.000000e+00
-1.710001e-02 0.000000e+00
-1.700000e-02 0.000000e+00
-1.690001e-02 0.000000e+00
-1.680001e-02 0.000000e+00
-1.670001e-02 0.000000e+00
-1.660001e-02 0.000000e+00
-1.650001e-02 0.000000e+00
-1.640001e-02 0.000000e+00
-1.630001e-02 0.000000e+00
-1.620001e-02 0.000000e+00
-1.610000e-02 0.000000e+00
-1.600001e-02 0.000000e+00
-1.590001e-02 0.000000e+00
-1.580001e-02 0.000000e+00
-1.570000e-02 0.000000e+00
-1.560001e-02 0.000000e+00
-1.550001e-02 0.000000e+00
-1.540001e-02 0.000000e+00
-1.530001e-02 0.000000e+00
-1.520000e-02 0.000000e+00
-1.510001e-02 0.000000e+00
-1.500001e-02 0.000000e+00
-1.490001e-02 0.000000e+00
-1.480000e-02 0.000000e+00
-1.470001e-02 0.000000e+00
-1.460001e-02 0.000000e+00
-1.450001e-02 0.000000e+00
-1.440001e-02 0.000000e+00
-1.430001e-02 0.000000e+00
-1.420001e-02 0.000000e+00
-1.410001e-02 0.000000e+00
-1.400001e-02 0.000000e+00
-1.390000e-02 0.000000e+00
-1.380001e-02 0.000000e+00
-1.370001e-02 0.000000e+00
-1.360001e-02 0.000000e+00
-1.350001e-02 0.000000e+00
-1.340001e-02 0.000000e+00
-1.330001e-02 0.000000e+00
-1.320001e-02 0.000000e+00
-1.310001e-02 0.000000e+00
-1.300000e-02 0.000000e+00
-1.290001e-02 0.000000e+00
-1.280001e-02 0.000000e+00
-1.270001e-02 0.000000e+00
-1.260000e-02 0.000000e+00
-1.250001e-02 0.000000e+00
-1.240001e-02 0.000000e+00
-1.230001e-02 0.000000e+00
-1.220001e-02 0.000000e+00
-1.210001e-02 0.000000e+00
-1.200001e-02 0.000000e+00
-1.190001e-02 0.000000e+00
-1.180001e-02 0.000000e+00
-1.170000e-02 0.000000e+00
-1.160001e-02 0.000000e+00
-1.150001e-02 0.000000e+00
-1.140001e-02 0.000000e+00
-1.130001e-02 0.000000e+00
-1.120001e-02 0.000000e+00
-1.110001e-02 0.000000e+00
-1.100001e-02 0.000000e+00
-1.090001e-02 0.000000e+00
-1.080000e-02 0.000000e+00
-1.070001e-02 0.000000e+00
-1.060001e-02 0.000000e+00
-1.050001e-02 0.000000e+00
-1.040000e-02 0.000000e+00
-1.030001e-02 0.000000e+00
-1.020001e-02 0.000000e+00
-1.010001e-02 0.000000e+00
-1.000001e-02 0.000000e+00
-9.900011e-03 0.000000e+00
-9.800009e-03 0.000000e+00
-9.700008e-03 0.000000e+00
-9.600006e-03 0.000000e+00
-9.500004e-03 0.000000e+00
-9.400010e-03 0.000000e+00
-9.300008e-03 0.000000e+00
-9.200007e-03 0.000000e+00
-9.100005e-03 0.000000e+00
-9.000011e-03 0.000000e+00