-1.200000e-01 0.000000e+00
-1.199000e-01 0.000000e+00
-1.198000e-01 0.000000e+00
-1.197000e-01 0.000000e+00
-1.196000e-01 0.000000e+00
-1.195000e-01 0.000000e+00
-1.194000e-01 0.000000e+00
-1.193000e-01 0.000000e+00
-1.192000e-01 0.000000e+00
-1.191000e-01 0.000000e+00
-1.190000e-01 0.000000e+00
-1.189000e-01 0.000000e+00
-1.188000e-01 0.000000e+00
-1.187000e-01 0.000000e+00
-1.186000e-01 0.000000e+00
-1.185000e-01 0.000000e+00
-1.184000e-01 0.000000e+00
-1.183000e-01 0.000000e+00
-1.182000e-01 0.000000e+00
-1.181000e-01 0.000000e+00
-1.180000e-01 0.000000e+00
-1.179000e-01 0.000000e+00
-1.178000e-01 0.000000e+00
-1.177000e-01 0.000000e+00
-1.176000e-01 0.000000e+00
-1.175000e-01 0.000000e+00
-1.174000e-01 0.000000e+00
-1.173000e-01 0.000000e+00
-1.172000e-01 0.000000e+00
-1.171000e-01 0.000000e+00
-1.170000e-01 0.000000e+00
-1.169000e-01 0.000000e+00
-1.168000e-01 0.000000e+00
-1.167000e-01 0.000000e+00
-1.166000e-01 0.000000e+00
-1.165000e-01 0.000000e+00
-1.164000e-01 0.000000e+00
-1.163000e-01 0.000000e+00
-1.162000e-01 0.000000e+00
-1.161000e-01 0.000000e+00
-1.160000e-01 0.000000e+00
-1.159000e-01 0.000000e+00
-1.158000e-01 0.000000e+00
-1.157000e-01 0.000000e+00
-1.156000e-01 0.000000e+00
-1.155000e-01 0.000000e+00
-1.154000e-01 0.000000e+00
-1.153000e-01 0.000000e+00
-1.152000e-01 0.000000e+00
-1.151000e-01 0.000000e+00
-1.150000e-01 0.000000e+00
-1.149000e-01 0.000000e+00
-1.148000e-01 0.000000e+00
-1.147000e-01 0.000000e+00
-1.146000e-01 0.000000e+00
-1.145000e-01 0.000000e+00
-1.144000e-01 0.000000e+00
-1.143000e-01 0.000000e+00
-1.142000e-01 0.000000e+00
-1.141000e-01 0.000000e+00
-1.140000e-01 0.000000e+00
-1.139000e-01 0.000000e+00
-1.138000e-01 0.000000e+00
-1.137000e-01 0.000000e+00
-1.136000e-01 0.000000e+00
-1.135000e-01 0.000000e+00
-1.134000e-01 0.000000e+00
-1.133000e-01 0.000000e+00
-1.132000e-01 0.000000e+00
-1.131000e-01 0.000000e+00
-1.130000e-01 0.000000e+00
-1.129000e-01 0.000000e+00
-1.128000e-01 0.000000e+00
-1.127000e-01 0.000000e+00
-1.126000e-01 0.000000e+00
-1.125000e-01 0.000000e+00
-1.124000e-01 0.000000e+00
-1.123000e-01 0.000000e+00
-1.122000e-01 0.000000e+00
-1.121000e-01 0.000000e+00
-1.120000e-01 0.000000e+00
-1.119000e-01 0.000000e+00
-1.118000e-01 0.000000e+00
-1.117000e-01 0.000000e+00
-1.116000e-01 0.000000e+00
-1.115000e-01 0.000000e+00
-1.114000e-01 0.000000e+00
-1.113000e-01 0.000000e+00
-1.112000e-01 0.000000e+00
-1.111000e-01 0.000000e+00
-1.110000e-01 0.000000e+00
-1.109000e-01 0.000000e+00
-1.108000e-01 0.000000e+00
-1.107000e-01 0.000000e+00
-1.106000e-01 0.000000e+00
-1.105000e-01 0.000000e+00
-1.104000e-01 0.000000e+00
-1.103000e-01 0.000000e+00
-1.102000e-01 0.000000e+00
-1.101000e-01 0.000000e+00
-1.100000e-01 0.000000e+00
-1.099000e-01 0.000000e+00
-1.098000e-01 0.000000e+00
-1.097000e-01 0.000000e+00
-1.096000e-01 0.000000e+00
-1.095000e-01 0.000000e+00
-1.094000e-01 0.000000e+00
-1.093000e-01 0.000000e+00
-1.092000e-01 0.000000e+00
-1.091000e-01 0.000000e+00
-1.090000e-01 0.000000e+00
-1.089000e-01 0.000000e+00
-1.088000e-01 0.000000e+00
-1.087000e-01 0.000000e+00
-1.086000e-01 0.000000e+00
-1.085000e-01 0.000000e+00
-1.084000e-01 0.000000e+00
-1.083000e-01 0.000000e+00
-1.082000e-01 0.000000e+00
-1.081000e-01 0.000000e+00
-1.080000e-01 0.000000e+00
-1.079000e-01 0.000000e+00
-1.078000e-01 0.000000e+00
-1.077000e-01 0.000000e+00
-1.076000e-01 0.000000e+00
-1.075000e-01 0.000000e+00
-1.074000e-01 0.000000e+00
-1.073000e-01 0.000000e+00
-1.072000e-01 0.000000e+00
-1.071000e-01 0.000000e+00
-1.070000e-01 0.000000e+00
-1.069000e-01 0.000000e+00
-1.068000e-01 0.000000e+00
-1.067000e-01 0.000000e+00
-1.066000e-01 0.000000e+00
-1.065000e-01 0.000000e+00
-1.064000e-01 0.000000e+00
-1.063000e-01 0.000000e+00
-1.062000e-01 0.000000e+00
-1.061000e-01 0.000000e+00
-1.060000e-01 0.000000e+00
-1.059000e-01 0.000000e+00
-1.058000e-01 0.000000e+00
-1.057000e-01 0.000000e+00
-1.056000e-01 0.000000e+00
-1.055000e-01 0.000000e+00
-1.054000e-01 0.000000e+00
-1.053000e-01 0.000000e+00
-1.052000e-01 0.000000e+00
-1.051000e-01 0.000000e+00
-1.050000e-01 0.000000e+00
-1.049000e-01 0.000000e+00
-1.048000e-01 0.000000e+00
-1.047000e-01 0.000000e+00
-1.046000e-01 0.000000e+00
-1.045000e-01 0.000000e+00
-1.044000e-01 0.000000e+00
-1.043000e-01 0.000000e+00
-1.042000e-01 0.000000e+00
-1.041000e-01 0.000000e+00
-1.040000e-01 0.000000e+00
-1.039000e-01 0.000000e+00
-1.038000e-01 0.000000e+00
-1.037000e-01 0.000000e+00
-1.036000e-01 0.000000e+00
-1.035000e-01 0.000000e+00
-1.034000e-01 0.000000e+00
-1.033000e-01 0.000000e+00
-1.032000e-01 0.000000e+00
-1.031000e-01 0.000000e+00
-1.030000e-01 0.000000e+00
-1.029000e-01 0.000000e+00
-1.028000e-01 0.000000e+00
-1.027000e-01 0.000000e+00
-1.026000e-01 0.000000e+00
-1.025000e-01 0.000000e+00
-1.024000e-01 0.000000e+00
-1.023000e-01 0.000000e+00
-1.022000e-01 0.000000e+00
-1.021000e-01 0.000000e+00
-1.020000e-01 0.000000e+00
-1.019000e-01 0.000000e+00
-1.018000e-01 0.000000e+00
-1.017000e-01 0.000000e+00
-1.016000e-01 0.000000e+00
-1.015000e-01 0.000000e+00
-1.014000e-01 0.000000e+00
-1.013000e-01 0.000000e+00
-1.012000e-01 0.000000e+00
-1.011000e-01 0.000000e+00
-1.010000e-01 0.000000e+00
-1.009000e-01 0.000000e+00
-1.008000e-01 0.000000e+00
-1.007000e-01 0.000000e+00
-1.006000e-01 0.000000e+00
-1.005000e-01 0.000000e+00
-1.004000e-01 0.000000e+00
-1.003000e-01 0.000000e+00
-1.002000e-01 0.000000e+00
-1.001000e-01 0.000000e+00
-1.000000e-01 0.000000e+00
-9.990001e-02 0.000000e+00
-9.980001e-02 0.000000e+00
-9.970000e-02 0.000000e+00
-9.960000e-02 0.000000e+00
-9.950001e-02 0.000000e+00
-9.940001e-02 0.000000e+00
-9.930000e-02 0.000000e+00
-9.920000e-02 0.000000e+00
-9.910001e-02 0.000000e+00
-9.900001e-02 0.000000e+00
-9.890001e-02 0.000000e+00
-9.880000e-02 0.000000e+00
-9.870000e-02 0.000000e+00
-9.860001e-02 0.000000e+00
-9.850001e-02 0.000000e+00
-9.840000e-02 0.000000e+00
-9.830001e-02 0.000000e+00
-9.820001e-02 0.000000e+00
-9.810001e-02 0.000000e+00
-9.800000e-02 0.000000e+00
-9.790000e-02 0.000000e+00
-9.780000e-02 0.000000e+00
-9.770001e-02 0.000000e+00
-9.760001e-02 0.000000e+00
-9.750000e-02 0.000000e+00
-9.740001e-02 0.000000e+00
-9.730001e-02 0.000000e+00
-9.720001e-02 0.000000e+00
-9.710000e-02 0.000000e+00
-9.700000e-02 0.000000e+00
-9.690000e-02 0.000000e+00
-9.680001e-02 0.000000e+00
-9.670001e-02 0.000000e+00
-9.660000e-02 0.000000e+00
-9.650001e-02 0.000000e+00
-9.640001e-02 0.000000e+00
-9.630001e-02 0.000000e+00
-9.620000e-02 0.000000e+00
-9.610000e-02 0.000000e+00
-9.600000e-02 0.000000e+00
-9.590001e-02 0.000000e+00
-9.580000e-02 0.000000e+00
-9.570000e-02 0.000000e+00
-9.560001e-02 0.000000e+00
-9.550001e-02 0.000000e+00
-9.540001e-02 0.000000e+00
-9.530000e-02 0.000000e+00
-9.520000e-02 0.000000e+00
-9.510001e-02 0.000000e+00
-9.500001e-02 0.000000e+00
-9.490000e-02 0.000000e+00
-9.480000e-02 0.000000e+00
-9.470001e-02 0.000000e+00
-9.460001e-02 0.000000e+00
-9.450001e-02 0.000000e+00
-9.440000e-02 0.000000e+00
-9.430000e-02 0.000000e+00
-9.420001e-02 0.000000e+00
-9.410001e-02 0.000000e+00
-9.400000e-02 0.000000e+00
-9.390001e-02 0.000000e+00
-9.380001e-02 0.000000e+00
-9.370001e-02 0.000000e+00
-9.360000e-02 0.000000e+00
-9.350000e-02 0.000000e+00
-9.340000e-02 0.000000e+00
-9.330001e-02 0.000000e+00
-9.320001e-02 0.000000e+00
-9.310000e-02 0.000000e+00
-9.300001e-02 0.000000e+00
-9.290001e-02 0.000000e+00
-9.280001e-02 0.000000e+00
-9.270000e-02 0.000000e+00
-9.260000e-02 0.000000e+00
-9.250000e-02 0.000000e+00
-9.240001e-02 0.000000e+00
-9.230001e-02 0.000000e+00
-9.220000e-02 0.000000e+00
-9.210001e-02 0.000000e+00
-9.200001e-02 0.000000e+00
-9.190001e-02 0.000000e+00
-9.180000e-02 0.000000e+00
-9.170000e-02 0.000000e+00
-9.160000e-02 0.000000e+00
-9.150001e-02 0.000000e+00
-9.140000e-02 0.000000e+00
-9.130000e-02 0.000000e+00
-9.120001e-02 0.000000e+00
-9.110001e-02 0.000000e+00
-9.100001e-02 0.000000e+00
-9.090000e-02 0.000000e+00
-9.080000e-02 0.000000e+00
-9.070001e-02 0.000000e+00
-9.060001e-02 0.000000e+00
-9.050000e-02 0.000000e+00
-9.040000e-02 0.000000e+00
-9.030001e-02 0.000000e+00
-9.020001e-02 0.000000e+00
-9.010001e-02 0.000000e+00
-9.000000e-02 0.000000e+00
-8.990000e-02 0.000000e+00
-8.980001e-02 0.000000e+00
-8.970001e-02 0.000000e+00
-8.960000e-02 0.000000e+00
-8.950001e-02 0.000000e+00
-8.940001e-02 0.000000e+00
-8.930001e-02 0.000000e+00
-8.920000e-02 0.000000e+00
-8.910000e-02 0.000000e+00
-8.900000e-02 0.000000e+00
-8.890001e-02 0.000000e+00
-8.880001e-02 0.000000e+00
-8.870000e-02 0.000000e+00
-8.860001e-02 0.000000e+00
-8.850001e-02 0.000000e+00
-8.840001e-02 0.000000e+00
-8.830000e-02 0.000000e+00
-8.820000e-02 0.000000e+00
-8.810000e-02 0.000000e+00
-8.800001e-02 0.000000e+00
-8.790001e-02 0.000000e+00
-8.780001e-02 0.000000e+00
-8.770001e-02 0.000000e+00
-8.760001e-02 0.000000e+00
-8.750001e-02 0.000000e+00
-8.740000e-02 0.000000e+00
-8.730000e-02 0.000000e+00
-8.720000e-02 0.000000e+00
-8.710001e-02 0.000000e+00
-8.700000e-02 0.000000e+00
-8.690001e-02 0.000000e+00
-8.680001e-02 0.000000e+00
-8.670001e-02 0.000000e+00
-8.660001e-02 0.000000e+00
-8.650000e-02 0.000000e+00
-8.640000e-02 0.000000e+00
-8.630000e-02 0.000000e+00
-8.620001e-02 0.000000e+00
-8.610000e-02 0.000000e+00
-8.600001e-02 0.000000e+00
-8.590001e-02 0.000000e+00
-8.580001e-02 0.000000e+00
-8.570001e-02 0.000000e+00
-8.560000e-02 0.000000e+00
-8.550000e-02 0.000000e+00
-8.540000e-02 0.000000e+00
-8.530001e-02 0.000000e+00
-8.520000e-02 0.000000e+00
-8.510001e-02 0.000000e+00
-8.500001e-02 0.000000e+00
-8.490001e-02 0.000000e+00
-8.480000e-02 0.000000e+00
-8.470000e-02 0.000000e+00
-8.460000e-02 0.000000e+00
-8.450001e-02 0.000000e+00
-8.440001e-02 0.000000e+00
-8.430000e-02 0.000000e+00
-8.420001e-02 0.000000e+00
-8.410001e-02 0.000000e+00
-8.400001e-02 0.000000e+00
-8.390000e-02 0.000000e+00
-8.380000e-02 0.000000e+00
-8.370000e-02 0.000000e+00
-8.360001e-02 0.000000e+00
-8.350001e-02 0.000000e+00
-8.340001e-02 0.000000e+00
-8.330001e-02 0.000000e+00
-8.320001e-02 0.000000e+00
-8.310001e-02 0.000000e+00
-8.300000e-02 0.000000e+00
-8.290000e-02 0.000000e+00
-8.280000e-02 0.000000e+00
-8.270001e-02 0.000000e+00
-8.260000e-02 0.000000e+00
-8.250001e-02 0.000000e+00
-8.240001e-02 0.000000e+00
-8.230001e-02 0.000000e+00
-8.220001e-02 0.000000e+00
-8.210000e-02 0.000000e+00
-8.200000e-02 0.000000e+00
-8.190000e-02 0.000000e+00
-8.180001e-02 0.000000e+00
-8.170000e-02 0.000000e+00
-8.160001e-02 0.000000e+00
-8.150001e-02 0.000000e+00
-8.140001e-02 0.000000e+00
-8.130001e-02 0.000000e+00
-8.120000e-02 0.000000e+00
-8.110000e-02 0.000000e+00
-8.100000e-02 0.000000e+00
-8.090001e-02 0.000000e+00
-8.080000e-02 0.000000e+00
-8.070001e-02 0.000000e+00
-8.060001e-02 0.000000e+00
-8.050001e-02 0.000000e+00
-8.040000e-02 0.000000e+00
-8.030000e-02 0.000000e+00
-8.020000e-02 0.000000e+00
-8.010001e-02 0.000000e+00
-8.000001e-02 0.000000e+00
-7.990000e-02 0.000000e+00
-7.980001e-02 0.000000e+00
-7.970001e-02 0.000000e+00
-7.960001e-02 0.000000e+00
-7.950000e-02 0.000000e+00
-7.940000e-02 0.000000e+00
-7.930000e-02 0.000000e+00
-7.920001e-02 0.000000e+00
-7.910001e-02 0.000000e+00
-7.900001e-02 0.000000e+00
-7.890001e-02 0.000000e+00
-7.880001e-02 0.000000e+00
-7.870001e-02 0.000000e+00
-7.860000e-02 0.000000e+00
-7.850000e-02 0.000000e+00
-7.840000e-02 0.000000e+00
-7.830001e-02 0.000000e+00
-7.820000e-02 0.000000e+00
-7.810001e-02 0.000000e+00
-7.800001e-02 0.000000e+00
-7.790001e-02 0.000000e+00
-7.780001e-02 0.000000e+00
-7.770000e-02 0.000000e+00
-7.760000e-02 0.000000e+00
-7.750000e-02 0.000000e+00
-7.740001e-02 0.000000e+00
-7.730000e-02 0.000000e+00
-7.720001e-02 0.000000e+00
-7.710001e-02 0.000000e+00
-7.700001e-02 0.000000e+00
-7.690001e-02 0.000000e+00
-7.680000e-02 0.000000e+00
-7.670000e-02 0.000000e+00
-7.660001e-02 0.000000e+00
-7.650001e-02 0.000000e+00
-7.640000e-02 0.000000e+00
-7.630001e-02 0.000000e+00
-7.620001e-02 0.000000e+00
-7.610001e-02 0.000000e+00
-7.600001e-02 0.000000e+00
-7.590000e-02 0.000000e+00
-7.580000e-02 0.000000e+00
-7.570001e-02 0.000000e+00
-7.560001e-02 0.000000e+00
-7.550001e-02 0.000000e+00
-7.540001e-02 0.000000e+00
-7.530001e-02 0.000000e+00
-7.520001e-02 0.000000e+00
-7.510000e-02 0.000000e+00
-7.500000e-02 0.000000e+00
-7.490000e-02 0.000000e+00
-7.480001e-02 0.000000e+00
-7.470001e-02 0.000000e+00
-7.460001e-02 0.000000e+00
-7.450001e-02 0.000000e+00
-7.440001e-02 0.000000e+00
-7.430001e-02 0.000000e+00
-7.420000e-02 -1.401298e-45
-7.410000e-02 -1.401298e-45
-7.400000e-02 -1.401298e-45
-7.390001e-02 -1.401298e-45
-7.380001e-02 -1.401298e-45
-7.370001e-02 -1.401298e-45
-7.360001e-02 0.000000e+00
-7.350001e-02 1.401298e-45
-7.340001e-02 2.802597e-45
-7.330000e-02 5.605194e-45
-7.320000e-02 8.407791e-45
-7.310000e-02 1.121039e-44
-7.300001e-02 1.401298e-44
-7.290000e-02 1.681558e-44
-7.280001e-02 1.821688e-44
-7.270001e-02 1.681558e-44
-7.260001e-02 1.401298e-44
-7.250001e-02 8.407791e-45
-7.240000e-02 0.000000e+00
-7.230000e-02 -9.809089e-45
-7.220001e-02 -2.382207e-44
-7.210001e-02 -4.063766e-44
-7.200000e-02 -5.885454e-44
-7.190001e-02 -7.987401e-44
-7.180001e-02 -9.949219e-44
-7.170001e-02 -1.191104e-43
-7.160001e-02 -1.359260e-43
-7.150000e-02 -1.471363e-43
-7.140000e-02 -1.513402e-43
-7.130001e-02 -1.471363e-43
-7.120001e-02 -1.303208e-43
-7.110001e-02 -9.949219e-44
-7.100001e-02 -5.184804e-44
-7.090001e-02 1.261169e-44
-7.080001e-02 9.668959e-44
-7.070000e-02 1.975831e-43
-7.060000e-02 3.152922e-43
-7.050000e-02 4.456129e-43
-7.040001e-02 5.843415e-43
-7.030001e-02 7.216687e-43
-7.020001e-02 8.505882e-43
-7.010001e-02 9.598894e-43
-7.000001e-02 1.035560e-42
-6.990001e-02 1.063586e-42
-6.980000e-02 1.029954e-42
-6.970000e-02 9.178505e-43
-6.960000e-02 7.132609e-43
-6.950001e-02 4.063766e-43
-6.940001e-02 -1.261169e-44
-6.930001e-02 -5.465064e-43
-6.920001e-02 -1.192505e-42
-6.910001e-02 -1.939397e-42
-6.900001e-02 -2.766163e-42
-6.890000e-02 -3.640573e-42
-6.880000e-02 -4.520589e-42
-6.870000e-02 -5.350158e-42
-6.860001e-02 -6.062017e-42
-6.850000e-02 -6.577695e-42
-6.840001e-02 -6.813113e-42
-6.830001e-02 -6.675786e-42
-6.820001e-02 -6.076030e-42
-6.810001e-02 -4.928367e-42
-6.800000e-02 -3.159928e-42
-6.790000e-02 -7.160635e-43
-6.780001e-02 2.425648e-42
-6.770001e-02 6.252594e-42
-6.760000e-02 1.070452e-41
-6.750001e-02 1.566371e-41
-6.740001e-02 2.095362e-41
-6.730001e-02 2.632619e-41
-6.720001e-02 3.146616e-41
-6.710000e-02 3.598815e-41
-6.700000e-02 3.944935e-41
-6.690001e-02 4.135512e-41
-6.680001e-02 4.118276e-41
-6.670001e-02 3.840118e-41
-6.660001e-02 3.251012e-41
-6.650001e-02 2.307098e-41
-6.640001e-02 9.753037e-42
-6.630000e-02 -7.617458e-42
-6.620000e-02 -2.900408e-41
-6.610000e-02 -5.411534e-41
-6.600001e-02 -8.235571e-41
-6.590001e-02 -1.127821e-40
-6.580001e-02 -1.440801e-40
-6.570001e-02 -1.745457e-40
-6.560001e-02 -2.021009e-40
-6.550001e-02 -2.243185e-40
-6.540000e-02 -2.384898e-40
-6.530000e-02 -2.417198e-40
-6.520000e-02 -2.310587e-40
-6.510001e-02 -2.036675e-40
-6.500001e-02 -1.570197e-40
-6.490001e-02 -8.913239e-41
-6.480001e-02 1.178492e-42
-6.470001e-02 1.140279e-40
-6.460001e-02 2.481910e-40
-6.450000e-02 4.008540e-40
-6.440000e-02 5.673900e-40
-6.430000e-02 7.411958e-40
-6.420001e-02 9.136116e-40
-6.410000e-02 1.073943e-39
-6.400001e-02 1.209608e-39
-6.390001e-02 1.306442e-39
-6.380001e-02 1.349160e-39
-6.370001e-02 1.322010e-39
-6.360000e-02 1.209599e-39
-6.350000e-02 9.979039e-40
-6.340001e-02 6.754385e-40
-6.330001e-02 2.345465e-40
-6.320000e-02 -3.272312e-40
-6.310001e-02 -1.005760e-39
-6.300001e-02 -1.788996e-39
-6.290001e-02 -2.655819e-39
-6.280001e-02 -3.575136e-39
-6.270000e-02 -4.505354e-39
-6.260000e-02 -5.394369e-39
-6.250001e-02 -6.180158e-39
-6.240001e-02 -6.792112e-39
-6.230001e-02 -7.153166e-39
-6.220001e-02 -7.182833e-39
-6.210000e-02 -6.801118e-39
-6.200001e-02 -5.933335e-39
-6.190000e-02 -4.515712e-39
-6.180001e-02 -2.501660e-39
-6.170001e-02 1.315203e-40
-6.160001e-02 3.375785e-39
-6.150001e-02 7.185717e-39
-6.140001e-02 1.147255e-38
-6.130001e-02 1.609934e-38
-6.120001e-02 2.087788e-38
-6.110001e-02 2.556786e-38
-6.100000e-02 2.987880e-38
-6.090001e-02 3.347548e-38
-6.080000e-02 3.598707e-38
-6.070001e-02 3.702035e-38
-6.060001e-02 3.617741e-38
-6.050001e-02 3.307735e-38
-6.040001e-02 2.738206e-38
-6.030001e-02 1.882528e-38
-6.020001e-02 7.243982e-39
-6.010001e-02 -7.389065e-39
-6.000001e-02 -2.493331e-38
-5.990001e-02 -4.505089e-38
-5.980001e-02 -6.718182e-38
-5.970000e-02 -9.052640e-38
-5.960001e-02 -1.140373e-37
-5.950001e-02 -1.364241e-37
-5.940001e-02 -1.561725e-37
-5.930001e-02 -1.715810e-37
-5.920001e-02 -1.808153e-37
-5.910001e-02 -1.819830e-37
-5.900001e-02 -1.732276e-37
-5.890001e-02 -1.528411e-37
-5.880001e-02 -1.193925e-37
-5.870001e-02 -7.186895e-38
-5.860000e-02 -9.823898e-39
-5.850001e-02 6.647472e-38
-5.840001e-02 1.559041e-37
-5.830001e-02 2.563641e-37
-5.820001e-02 3.646830e-37
-5.810001e-02 4.765630e-37
-5.800001e-02 5.865773e-37
-5.790001e-02 6.882292e-37
-5.780001e-02 7.740835e-37
-5.770001e-02 8.359787e-37
-5.760001e-02 8.653244e-37
-5.750000e-02 8.534858e-37
-5.740000e-02 7.922521e-37
-5.730001e-02 6.743809e-37
-5.720001e-02 4.942038e-37
-5.710001e-02 2.482723e-37
-5.700000e-02 -6.398237e-38
-5.690001e-02 -4.396104e-37
-5.680001e-02 -8.715642e-37
-5.670001e-02 -1.348224e-36
-5.660000e-02 -1.853075e-36
-5.650000e-02 -2.364587e-36
-5.640001e-02 -2.856344e-36
-5.630001e-02 -3.297470e-36
-5.620001e-02 -3.653382e-36
-5.610000e-02 -3.886907e-36
-5.600001e-02 -3.959772e-36
-5.590001e-02 -3.834452e-36
-5.580001e-02 -3.476371e-36
-5.570000e-02 -2.856380e-36
-5.560001e-02 -1.953457e-36
-5.550001e-02 -7.575197e-37
-5.540001e-02 7.277944e-37
-5.530000e-02 2.482510e-36
-5.520000e-02 4.468055e-36
-5.510001e-02 6.625552e-36
-5.500001e-02 8.874850e-36
-5.490001e-02 1.111452e-35
-5.480000e-02 1.322299e-35
-5.470001e-02 1.506098e-35
-5.460001e-02 1.647541e-35
-5.450001e-02 1.730483e-35
-5.440000e-02 1.738630e-35
-5.430000e-02 1.656390e-35
-5.420001e-02 1.469837e-35
-5.410001e-02 1.167791e-35
-5.400001e-02 7.429609e-36
-5.390000e-02 1.931071e-36
-5.380001e-02 -4.778346e-36
-5.370001e-02 -1.258735e-35
-5.360001e-02 -2.130439e-35
-5.350000e-02 -3.065189e-35
-5.340001e-02 -4.026398e-35
-5.330001e-02 -4.968840e-35
-5.320001e-02 -5.839344e-35
-5.310000e-02 -6.578034e-35
-5.300000e-02 -7.120170e-35
-5.290001e-02 -7.398607e-35
-5.280001e-02 -7.346848e-35
-5.270001e-02 -6.902672e-35
-5.260000e-02 -6.012217e-35
-5.250001e-02 -4.634437e-35
-5.240001e-02 -2.745722e-35
-5.230001e-02 -3.445101e-36
-5.220000e-02 2.544379e-35
-5.210000e-02 5.865956e-35
-5.200001e-02 9.532128e-35
-5.190001e-02 1.341994e-34
-5.180001e-02 1.737128e-34
-5.170000e-02 2.119438e-34
-5.160001e-02 2.466736e-34
-5.150001e-02 2.754398e-34
-5.140001e-02 2.956177e-34
-5.130000e-02 3.045253e-34
-5.120001e-02 2.995512e-34
-5.110001e-02 2.783026e-34
-5.100001e-02 2.387702e-34
-5.090000e-02 1.795036e-34
-5.080000e-02 9.979141e-35
-5.070001e-02 -1.639149e-37
-5.060001e-02 -1.190851e-34
-5.050001e-02 -2.544847e-34
-5.040000e-02 -4.025671e-34
-5.030001e-02 -5.581795e-34
-5.020001e-02 -7.148229e-34
-5.010001e-02 -8.647347e-34
-5.000000e-02 -9.990514e-34
-4.990001e-02 -1.108057e-33
-4.980001e-02 -1.181521e-33
-4.970001e-02 -1.209125e-33
-4.960001e-02 -1.180971e-33
-4.950000e-02 -1.088160e-33
-4.940001e-02 -9.234276e-34
-4.930001e-02 -6.818137e-34
-4.920001e-02 -3.613294e-34
-4.910000e-02 3.639893e-35
-4.900001e-02 5.055554e-34
-4.890001e-02 1.035669e-33
-4.880001e-02 1.611298e-33
-4.870000e-02 2.211913e-33
-4.860000e-02 2.812010e-33
-4.850001e-02 3.381502e-33
-4.840001e-02 3.886403e-33
-4.830001e-02 4.289838e-33
-4.820000e-02 4.553380e-33
-4.810001e-02 4.638690e-33
-4.800001e-02 4.509456e-33
-4.790001e-02 4.133575e-33
-4.780000e-02 3.485497e-33
-4.770001e-02 2.548665e-33
-4.760001e-02 1.317935e-33
-4.750001e-02 -1.981525e-34
-4.740001e-02 -1.975389e-33
-4.730000e-02 -3.972341e-33
-4.720001e-02 -6.129382e-33
-4.710001e-02 -8.368468e-33
-4.700001e-02 -1.059378e-32
-4.690000e-02 -1.269336e-32
-4.680001e-02 -1.454187e-32
-4.670001e-02 -1.600442e-32
-4.660001e-02 -1.694160e-32
-4.650000e-02 -1.721557e-32
-4.640000e-02 -1.669713e-32
-4.630001e-02 -1.527359e-32
-4.620001e-02 -1.285712e-32
-4.610001e-02 -9.393408e-33
-4.600000e-02 -4.870042e-33
-4.590001e-02 6.756877e-34
-4.580001e-02 7.150110e-33
-4.570001e-02 1.439814e-32
-4.560000e-02 2.220040e-32
-4.550001e-02 3.027302e-32
-4.540001e-02 3.827053e-32
-4.530001e-02 4.579231e-32
-4.520001e-02 5.239281e-32
-4.510000e-02 5.759564e-32
-4.500001e-02 6.091160e-32
-4.490001e-02 6.186027e-32
-4.480001e-02 5.999492e-32
-4.470000e-02 5.492973e-32
-4.460001e-02 4.636882e-32
-4.450001e-02 3.413549e-32
-4.440001e-02 1.820072e-32
-4.430000e-02 -1.290926e-33
-4.420000e-02 -2.399940e-32
-4.410001e-02 -4.937328e-32
-4.400001e-02 -7.664135e-32
-4.390001e-02 -1.048135e-31
-4.380000e-02 -1.326926e-31
-4.370001e-02 -1.588974e-31
-4.360001e-02 -1.818996e-31
-4.350001e-02 -2.000725e-31
-4.340000e-02 -2.117534e-31
-4.330001e-02 -2.153172e-31
-4.320001e-02 -2.092604e-31
-4.310001e-02 -1.922930e-31
-4.300001e-02 -1.634349e-31
-4.290000e-02 -1.221127e-31
-4.280001e-02 -6.825296e-32
-4.270001e-02 -2.366388e-33
-4.260001e-02 7.438243e-32
-4.250000e-02 1.601254e-31
-4.240001e-02 2.522668e-31
-4.230001e-02 3.474903e-31
-4.220001e-02 4.418015e-31
-4.210000e-02 5.306088e-31
-4.200000e-02 6.088466e-31
-4.190001e-02 6.711395e-31
-4.180001e-02 7.120081e-31
-4.170001e-02 7.261115e-31
-4.160000e-02 7.085214e-31
-4.150001e-02 6.550204e-31
-4.140001e-02 5.624126e-31
-4.130001e-02 4.288348e-31
-4.120000e-02 2.540533e-31
-4.110001e-02 3.973006e-32
-4.100001e-02 -2.103592e-31
-4.090001e-02 -4.901731e-31
-4.080001e-02 -7.913352e-31
-4.070000e-02 -1.103165e-30
-4.060001e-02 -1.412819e-30
-4.050001e-02 -1.705561e-30
-4.040001e-02 -1.965157e-30
-4.030000e-02 -2.174404e-30
-4.020001e-02 -2.315782e-30
-4.010001e-02 -2.372230e-30
-4.000001e-02 -2.328003e-30
-3.990000e-02 -2.169616e-30
-3.980000e-02 -1.886810e-30
-3.970001e-02 -1.473526e-30
-3.960001e-02 -9.288218e-31
-3.950001e-02 -2.576951e-31
-3.940000e-02 5.282490e-31
-3.930001e-02 1.410337e-30
-3.920001e-02 2.362627e-30
-3.910001e-02 3.352010e-30
-3.900000e-02 4.338670e-30
-3.890001e-02 5.276916e-30
-3.880001e-02 6.116413e-30
-3.870001e-02 6.803807e-30
-3.860001e-02 7.284744e-30
-3.850000e-02 7.506219e-30
-3.840001e-02 7.419221e-30
-3.830001e-02 6.981577e-30
-3.820001e-02 6.160910e-30
-3.810000e-02 4.937569e-30
-3.800001e-02 3.307409e-30
-3.790001e-02 1.284265e-30
-3.780001e-02 -1.098039e-30
-3.770000e-02 -3.784311e-30
-3.760000e-02 -6.697388e-30
-3.750001e-02 -9.738457e-30
-3.740001e-02 -1.278841e-29
-3.730001e-02 -1.571034e-29
-3.720000e-02 -1.835319e-29
-3.710001e-02 -2.055659e-29
-3.700001e-02 -2.215683e-29
-3.690001e-02 -2.299383e-29
-3.680000e-02 -2.291891e-29
-3.670001e-02 -2.180324e-29
-3.660001e-02 -1.954651e-29
-3.650001e-02 -1.608558e-29
-3.640001e-02 -1.140263e-29
-3.630000e-02 -5.532482e-30
-3.620001e-02 1.431516e-30
-3.610001e-02 9.333380e-30
-3.600001e-02 1.795267e-29
-3.590000e-02 2.700530e-29
-3.580001e-02 3.614741e-29
-3.570001e-02 4.498242e-29
-3.560001e-02 5.307152e-29
-3.550000e-02 5.994745e-29
-3.540000e-02 6.513163e-29
-3.530001e-02 6.815405e-29
-3.520001e-02 6.857562e-29
-3.510001e-02 6.601220e-29
-3.500000e-02 6.015947e-29
-3.490001e-02 5.081768e-29
-3.480001e-02 3.791512e-29
-3.470001e-02 2.152898e-29
-3.460000e-02 1.902467e-30
-3.450001e-02 -2.054319e-29
-3.440001e-02 -4.520313e-29
-3.430001e-02 -7.129067e-29
-3.420001e-02 -9.784756e-29
-3.410000e-02 -1.237632e-28
-3.400001e-02 -1.478036e-28
-3.390001e-02 -1.686491e-28
-3.380001e-02 -1.849421e-28
-3.370000e-02 -1.953417e-28
-3.360001e-02 -1.985859e-28
-3.350001e-02 -1.935584e-28
-3.340001e-02 -1.793575e-28
-3.330000e-02 -1.553650e-28
-3.320001e-02 -1.213120e-28
-3.310001e-02 -7.733710e-29
-3.300001e-02 -2.403497e-29
-3.290001e-02 3.750905e-29
-3.280000e-02 1.057017e-28
-3.270001e-02 1.784449e-28
-3.260001e-02 2.531609e-28
-3.250001e-02 3.268433e-28
-3.240000e-02 3.961323e-28
-3.230001e-02 4.574167e-28
-3.220001e-02 5.069595e-28
-3.210001e-02 5.410459e-28
-3.200001e-02 5.561498e-28
-3.190000e-02 5.491131e-28
-3.180001e-02 5.173324e-28
-3.170001e-02 4.589458e-28
-3.160001e-02 3.730108e-28
-3.150000e-02 2.596643e-28
-3.140001e-02 1.202571e-28
-3.130001e-02 -4.254905e-29
-3.120001e-02 -2.247289e-28
-3.110000e-02 -4.208942e-28
-3.100001e-02 -6.243539e-28
-3.090001e-02 -8.272403e-28
-3.080001e-02 -1.020701e-27
-3.070001e-02 -1.195160e-27
-3.060000e-02 -1.340642e-27
-3.050001e-02 -1.447157e-27
-3.040001e-02 -1.505134e-27
-3.030001e-02 -1.505888e-27
-3.020000e-02 -1.442110e-27
-3.010001e-02 -1.308361e-27
-3.000001e-02 -1.101539e-27
-2.990001e-02 -8.213078e-28
-2.980001e-02 -4.704604e-28
-2.970000e-02 -5.518613e-29
-2.960001e-02 4.147726e-28
-2.950001e-02 9.260999e-28
-2.940001e-02 1.462039e-27
-2.930000e-02 2.002691e-27
-2.920001e-02 2.525483e-27
-2.910001e-02 3.005816e-27
-2.900001e-02 3.417877e-27
-2.890000e-02 3.735600e-27
-2.880001e-02 3.933760e-27
-2.870001e-02 3.989165e-27
-2.860001e-02 3.881899e-27
-2.850001e-02 3.596580e-27
-2.840000e-02 3.123573e-27
-2.830001e-02 2.460101e-27
-2.820001e-02 1.611198e-27
-2.810001e-02 5.904304e-28
-2.800000e-02 -5.796482e-28
-2.790001e-02 -1.867388e-27
-2.780001e-02 -3.232304e-27
-2.770001e-02 -4.625752e-27
-2.760001e-02 -5.992036e-27
-2.750000e-02 -7.269949e-27
-2.740001e-02 -8.394735e-27
-2.730001e-02 -9.300436e-27
-2.720001e-02 -9.922564e-27
-2.710000e-02 -1.020103e-26
-2.700001e-02 -1.008324e-26
-2.690001e-02 -9.527199e-27
-2.680001e-02 -8.504556e-27
-2.670000e-02 -7.003428e-27
-2.660001e-02 -5.030814e-27
-2.650001e-02 -2.614513e-27
-2.640001e-02 1.956392e-28
-2.630001e-02 3.327325e-27
-2.620000e-02 6.686212e-27
-2.610001e-02 1.015741e-26
-2.600001e-02 1.360797e-26
-2.590001e-02 1.689045e-26
-2.580000e-02 1.984751e-26
-2.570001e-02 2.231742e-26
-2.560001e-02 2.414043e-26
-2.550001e-02 2.516574e-26
-2.540001e-02 2.525893e-26
-2.530000e-02 2.430946e-26
-2.520001e-02 2.223808e-26
-2.510001e-02 1.900372e-26
-2.500001e-02 1.460949e-26
-2.490000e-02 9.107572e-27
-2.480001e-02 2.602521e-27
-2.470001e-02 -4.747282e-27
-2.460001e-02 -1.273027e-26
-2.450000e-02 -2.108463e-26
-2.440001e-02 -2.950375e-26
-2.430001e-02 -3.764410e-26
-2.420001e-02 -4.513554e-26
-2.410001e-02 -5.159394e-26
-2.400000e-02 -5.663572e-26
-2.390001e-02 -5.989397e-26
-2.380001e-02 -6.103570e-26
-2.370001e-02 -5.977947e-26
-2.360000e-02 -5.591281e-26
-2.350001e-02 -4.930871e-26
-2.340001e-02 -3.994026e-26
-2.330001e-02 -2.789270e-26
-2.320001e-02 -1.337211e-26
-2.310000e-02 3.290011e-27
-2.300001e-02 2.163693e-26
-2.290001e-02 4.109214e-26
-2.280001e-02 6.097038e-26
-2.270000e-02 8.049445e-26
-2.260001e-02 9.881768e-26
-2.250001e-02 1.150517e-25
-2.240001e-02 1.282991e-25
-2.230000e-02 1.376899e-25
-2.220001e-02 1.424207e-25
-2.210001e-02 1.417957e-25
-2.200001e-02 1.352674e-25
-2.190001e-02 1.224753e-25
-2.180000e-02 1.032811e-25
-2.170001e-02 7.779858e-26
-2.160001e-02 4.641560e-26
-2.150001e-02 9.807331e-27
-2.140000e-02 -3.106159e-26
-2.130001e-02 -7.494675e-26
-2.120001e-02 -1.203468e-25
-2.110001e-02 -1.655393e-25
-2.100001e-02 -2.086304e-25
-2.090000e-02 -2.476170e-25
-2.080001e-02 -2.804593e-25
-2.070001e-02 -3.051643e-25
-2.060001e-02 -3.198745e-25
-2.050000e-02 -3.229608e-25
-2.040001e-02 -3.131146e-25
-2.030001e-02 -2.894366e-25
-2.020001e-02 -2.515152e-25
-2.010000e-02 -1.994932e-25
-2.000001e-02 -1.341162e-25
-1.990001e-02 -5.675962e-26
-1.980001e-02 3.056823e-26
-1.970001e-02 1.252513e-25
-1.960000e-02 2.241187e-25
-1.950001e-02 3.235272e-25
-1.940001e-02 4.194703e-25
-1.930001e-02 5.077138e-25
-1.920000e-02 5.839520e-25
-1.910001e-02 6.439794e-25
-1.900001e-02 6.838727e-25
-1.890001e-02 7.001754e-25
-1.880001e-02 6.900755e-25
-1.870000e-02 6.515709e-25
-1.860001e-02 5.836125e-25
-1.850001e-02 4.862189e-25
-1.840001e-02 3.605564e-25
-1.830000e-02 2.089788e-25
-1.820001e-02 3.502507e-26
-1.810001e-02 -1.566267e-25
-1.800001e-02 -3.602493e-25
-1.790000e-02 -5.691962e-25
-1.780001e-02 -7.760687e-25
-1.770001e-02 -9.729148e-25
-1.760001e-02 -1.151453e-24
-1.750001e-02 -1.303318e-24
-1.740000e-02 -1.420318e-24
-1.730001e-02 -1.494704e-24
-1.720001e-02 -1.519443e-24
-1.710001e-02 -1.488495e-24
-1.700000e-02 -1.397094e-24
-1.690001e-02 -1.242028e-24
-1.680001e-02 -1.021915e-24
-1.670001e-02 -7.374859e-25
-1.660001e-02 -3.918506e-25
-1.650001e-02 9.247299e-27
-1.640001e-02 4.572053e-25
-1.630001e-02 9.403869e-25
-1.620001e-02 1.444019e-24
-1.610000e-02 1.950197e-24
-1.600001e-02 2.438033e-24
-1.590001e-02 2.883979e-24
-1.580001e-02 3.262387e-24
-1.570000e-02 3.546302e-24
-1.560001e-02 3.708557e-24
-1.550001e-02 3.723141e-24
-1.540001e-02 3.566844e-24
-1.530001e-02 3.221143e-24
-1.520000e-02 2.674243e-24
-1.510001e-02 1.923168e-24
-1.500001e-02 9.757670e-25
-1.490001e-02 -1.475445e-25
-1.480000e-02 -1.412514e-24
-1.470001e-02 -2.770458e-24
-1.460001e-02 -4.158556e-24
-1.450001e-02 -5.501232e-24
-1.440001e-02 -6.712764e-24
-1.430001e-02 -7.701204e-24
-1.420001e-02 -8.373599e-24
-1.410001e-02 -8.642387e-24
-1.400001e-02 -8.432719e-24
-1.390000e-02 -7.690313e-24
-1.380001e-02 -6.389324e-24
-1.370001e-02 -4.539566e-24
-1.360001e-02 -2.192369e-24
-1.350001e-02 5.557385e-25
-1.340001e-02 3.562277e-24
-1.330001e-02 6.641704e-24
-1.320001e-02 9.572471e-24
-1.310001e-02 1.210852e-23
-1.300000e-02 1.399521e-23
-1.290001e-02 1.498918e-23
-1.280001e-02 1.488131e-23
-1.270001e-02 1.352137e-23
-1.260000e-02 1.084262e-23
-1.250001e-02 6.884017e-24
-1.240001e-02 1.807694e-24
-1.230001e-02 -4.090995e-24
-1.220001e-02 -1.038336e-23
-1.210001e-02 -1.651936e-23
-1.200001e-02 -2.185327e-23
-1.190001e-02 -2.568372e-23
-1.180001e-02 -2.730764e-23
-1.170000e-02 -2.608629e-23
-1.160001e-02 -2.151995e-23
-1.150001e-02 -1.332660e-23
-1.140001e-02 -1.518003e-24
-1.130001e-02 1.353418e-23
-1.120001e-02 3.105062e-23
-1.110001e-02 4.982339e-23
-1.100001e-02 6.823011e-23
-1.090001e-02 8.428955e-23
-1.080000e-02 9.576350e-23
-1.070001e-02 1.003059e-22
-1.060001e-02 9.565710e-23
-1.050001e-02 7.987480e-23
-1.040000e-02 5.159103e-23
-1.030001e-02 1.027622e-23
-1.020001e-02 -4.351084e-23