-1.200000e-01 0.000000e+00
-1.199000e-01 0.000000e+00
-1.198000e-01 0.000000e+00
-1.197000e-01 0.000000e+00
-1.196000e-01 0.000000e+00
-1.195000e-01 0.000000e+00
-1.194000e-01 0.000000e+00
-1.193000e-01 0.000000e+00
-1.192000e-01 0.000000e+00
-1.191000e-01 0.000000e+00
-1.190000e-01 0.000000e+00
-1.189000e-01 0.000000e+00
-1.188000e-01 0.000000e+00
-1.187000e-01 0.000000e+00
-1.186000e-01 0.000000e+00
-1.185000e-01 0.000000e+00
-1.184000e-01 0.000000e+00
-1.183000e-01 0.000000e+00
-1.182000e-01 0.000000e+00
-1.181000e-01 0.000000e+00
-1.180000e-01 0.000000e+00
-1.179000e-01 0.000000e+00
-1.178000e-01 0.000000e+00
-1.177000e-01 0.000000e+00
-1.176000e-01 0.000000e+00
-1.175000e-01 0.000000e+00
-1.174000e-01 0.000000e+00
-1.173000e-01 0.000000e+00
-1.172000e-01 0.000000e+00
-1.171000e-01 0.000000e+00
-1.170000e-01 0.000000e+00
-1.169000e-01 0.000000e+00
-1.168000e-01 0.000000e+00
-1.167000e-01 0.000000e+00
-1.166000e-01 0.000000e+00
-1.165000e-01 0.000000e+00
-1.164000e-01 0.000000e+00
-1.163000e-01 0.000000e+00
-1.162000e-01 0.000000e+00
-1.161000e-01 0.000000e+00
-1.160000e-01 0.000000e+00
-1.159000e-01 0.000000e+00
-1.158000e-01 0.000000e+00
-1.157000e-01 0.000000e+00
-1.156000e-01 0.000000e+00
-1.155000e-01 0.000000e+00
-1.154000e-01 0.000000e+00
-1.153000e-01 0.000000e+00
-1.152000e-01 0.000000e+00
-1.151000e-01 0.000000e+00
-1.150000e-01 0.000000e+00
-1.149000e-01 0.000000e+00
-1.148000e-01 0.000000e+00
-1.147000e-01 0.000000e+00
-1.146000e-01 0.000000e+00
-1.145000e-01 0.000000e+00
-1.144000e-01 0.000000e+00
-1.143000e-01 0.000000e+00
-1.142000e-01 0.000000e+00
-1.141000e-01 0.000000e+00
-1.140000e-01 0.000000e+00
-1.139000e-01 0.000000e+00
-1.138000e-01 0.000000e+00
-1.137000e-01 0.000000e+00
-1.136000e-01 0.000000e+00
-1.135000e-01 0.000000e+00
-1.134000e-01 0.000000e+00
-1.133000e-01 0.000000e+00
-1.132000e-01 0.000000e+00
-1.131000e-01 0.000000e+00
-1.130000e-01 0.000000e+00
-1.129000e-01 0.000000e+00
-1.128000e-01 0.000000e+00
-1.127000e-01 0.000000e+00
-1.126000e-01 0.000000e+00
-1.125000e-01 0.000000e+00
-1.124000e-01 0.000000e+00
-1.123000e-01 0.000000e+00
-1.122000e-01 0.000000e+00
-1.121000e-01 0.000000e+00
-1.120000e-01 0.000000e+00
-1.119000e-01 0.000000e+00
-1.118000e-01 0.000000e+00
-1.117000e-01 0.000000e+00
-1.116000e-01 0.000000e+00
-1.115000e-01 0.000000e+00
-1.114000e-01 0.000000e+00
-1.113000e-01 0.000000e+00
-1.112000e-01 0.000000e+00
-1.111000e-01 0.000000e+00
-1.110000e-01 0.000000e+00
-1.109000e-01 0.000000e+00
-1.108000e-01 0.000000e+00
-1.107000e-01 0.000000e+00
-1.106000e-01 0.000000e+00
-1.105000e-01 0.000000e+00
-1.104000e-01 0.000000e+00
-1.103000e-01 0.000000e+00
-1.102000e-01 0.000000e+00
-1.101000e-01 0.000000e+00
-1.100000e-01 0.000000e+00
-1.099000e-01 0.000000e+00
-1.098000e-01 0.000000e+00
-1.097000e-01 0.000000e+00
-1.096000e-01 0.000000e+00
-1.095000e-01 0.000000e+00
-1.094000e-01 0.000000e+00
-1.093000e-01 0.000000e+00
-1.092000e-01 0.000000e+00
-1.091000e-01 0.000000e+00
-1.090000e-01 0.000000e+00
-1.089000e-01 0.000000e+00
-1.088000e-01 0.000000e+00
-1.087000e-01 0.000000e+00
-1.086000e-01 0.000000e+00
-1.085000e-01 0.000000e+00
-1.084000e-01 0.000000e+00
-1.083000e-01 0.000000e+00
-1.082000e-01 0.000000e+00
-1.081000e-01 0.000000e+00
-1.080000e-01 0.000000e+00
-1.079000e-01 0.000000e+00
-1.078000e-01 0.000000e+00
-1.077000e-01 0.000000e+00
-1.076000e-01 0.000000e+00
-1.075000e-01 0.000000e+00
-1.074000e-01 0.000000e+00
-1.073000e-01 0.000000e+00
-1.072000e-01 0.000000e+00
-1.071000e-01 0.000000e+00
-1.070000e-01 0.000000e+00
-1.069000e-01 0.000000e+00
-1.068000e-01 0.000000e+00
-1.067000e-01 0.000000e+00
-1.066000e-01 0.000000e+00
-1.065000e-01 0.000000e+00
-1.064000e-01 0.000000e+00
-1.063000e-01 0.000000e+00
-1.062000e-01 0.000000e+00
-1.061000e-01 0.000000e+00
-1.060000e-01 0.000000e+00
-1.059000e-01 0.000000e+00
-1.058000e-01 0.000000e+00
-1.057000e-01 0.000000e+00
-1.056000e-01 0.000000e+00
-1.055000e-01 0.000000e+00
-1.054000e-01 0.000000e+00
-1.053000e-01 0.000000e+00
-1.052000e-01 0.000000e+00
-1.051000e-01 0.000000e+00
-1.050000e-01 0.000000e+00
-1.049000e-01 0.000000e+00
-1.048000e-01 0.000000e+00
-1.047000e-01 0.000000e+00
-1.046000e-01 0.000000e+00
-1.045000e-01 0.000000e+00
-1.044000e-01 0.000000e+00
-1.043000e-01 0.000000e+00
-1.042000e-01 0.000000e+00
-1.041000e-01 0.000000e+00
-1.040000e-01 0.000000e+00
-1.039000e-01 0.000000e+00
-1.038000e-01 0.000000e+00
-1.037000e-01 0.000000e+00
-1.036000e-01 0.000000e+00
-1.035000e-01 0.000000e+00
-1.034000e-01 0.000000e+00
-1.033000e-01 0.000000e+00
-1.032000e-01 0.000000e+00
-1.031000e-01 0.000000e+00
-1.030000e-01 0.000000e+00
-1.029000e-01 0.000000e+00
-1.028000e-01 0.000000e+00
-1.027000e-01 0.000000e+00
-1.026000e-01 0.000000e+00
-1.025000e-01 0.000000e+00
-1.024000e-01 0.000000e+00
-1.023000e-01 0.000000e+00
-1.022000e-01 0.000000e+00
-1.021000e-01 0.000000e+00
-1.020000e-01 0.000000e+00
-1.019000e-01 0.000000e+00
-1.018000e-01 0.000000e+00
-1.017000e-01 0.000000e+00
-1.016000e-01 0.000000e+00
-1.015000e-01 0.000000e+00
-1.014000e-01 0.000000e+00
-1.013000e-01 0.000000e+00
-1.012000e-01 0.000000e+00
-1.011000e-01 0.000000e+00
-1.010000e-01 0.000000e+00
-1.009000e-01 0.000000e+00
-1.008000e-01 0.000000e+00
-1.007000e-01 0.000000e+00
-1.006000e-01 0.000000e+00
-1.005000e-01 0.000000e+00
-1.004000e-01 0.000000e+00
-1.003000e-01 0.000000e+00
-1.002000e-01 0.000000e+00
-1.001000e-01 0.000000e+00
-1.000000e-01 0.000000e+00
-9.990001e-02 0.000000e+00
-9.980001e-02 0.000000e+00
-9.970000e-02 0.000000e+00
-9.960000e-02 0.000000e+00
-9.950001e-02 0.000000e+00
-9.940001e-02 0.000000e+00
-9.930000e-02 0.000000e+00
-9.920000e-02 0.000000e+00
-9.910001e-02 0.000000e+00
-9.900001e-02 0.000000e+00
-9.890001e-02 0.000000e+00
-9.880000e-02 0.000000e+00
-9.870000e-02 0.000000e+00
-9.860001e-02 0.000000e+00
-9.850001e-02 0.000000e+00
-9.840000e-02 0.000000e+00
-9.830001e-02 0.000000e+00
-9.820001e-02 0.000000e+00
-9.810001e-02 0.000000e+00
-9.800000e-02 0.000000e+00
-9.790000e-02 0.000000e+00
-9.780000e-02 0.000000e+00
-9.770001e-02 0.000000e+00
-9.760001e-02 0.000000e+00
-9.750000e-02 0.000000e+00
-9.740001e-02 0.000000e+00
-9.730001e-02 0.000000e+00
-9.720001e-02 0.000000e+00
-9.710000e-02 0.000000e+00
-9.700000e-02 0.000000e+00
-9.690000e-02 0.000000e+00
-9.680001e-02 0.000000e+00
-9.670001e-02 0.000000e+00
-9.660000e-02 0.000000e+00
-9.650001e-02 0.000000e+00
-9.640001e-02 0.000000e+00
-9.630001e-02 0.000000e+00
-9.620000e-02 0.000000e+00
-9.610000e-02 0.000000e+00
-9.600000e-02 0.000000e+00
-9.590001e-02 0.000000e+00
-9.580000e-02 0.000000e+00
-9.570000e-02 0.000000e+00
-9.560001e-02 0.000000e+00
-9.550001e-02 0.000000e+00
-9.540001e-02 0.000000e+00
-9.530000e-02 0.000000e+00
-9.520000e-02 0.000000e+00
-9.510001e-02 0.000000e+00
-9.500001e-02 0.000000e+00
-9.490000e-02 0.000000e+00
-9.480000e-02 0.000000e+00
-9.470001e-02 0.000000e+00
-9.460001e-02 0.000000e+00
-9.450001e-02 0.000000e+00
-9.440000e-02 0.000000e+00
-9.430000e-02 0.000000e+00
-9.420001e-02 0.000000e+00
-9.410001e-02 0.000000e+00
-9.400000e-02 0.000000e+00
-9.390001e-02 0.000000e+00
-9.380001e-02 0.000000e+00
-9.370001e-02 0.000000e+00
-9.360000e-02 0.000000e+00
-9.350000e-02 0.000000e+00
-9.340000e-02 0.000000e+00
-9.330001e-02 0.000000e+00
-9.320001e-02 0.000000e+00
-9.310000e-02 0.000000e+00
-9.300001e-02 0.000000e+00
-9.290001e-02 0.000000e+00
-9.280001e-02 0.000000e+00
-9.270000e-02 0.000000e+00
-9.260000e-02 0.000000e+00
-9.250000e-02 0.000000e+00
-9.240001e-02 0.000000e+00
-9.230001e-02 0.000000e+00
-9.220000e-02 0.000000e+00
-9.210001e-02 0.000000e+00
-9.200001e-02 0.000000e+00
-9.190001e-02 0.000000e+00
-9.180000e-02 0.000000e+00
-9.170000e-02 0.000000e+00
-9.160000e-02 0.000000e+00
-9.150001e-02 0.000000e+00
-9.140000e-02 0.000000e+00
-9.130000e-02 0.000000e+00
-9.120001e-02 0.000000e+00
-9.110001e-02 0.000000e+00
-9.100001e-02 0.000000e+00
-9.090000e-02 0.000000e+00
-9.080000e-02 0.000000e+00
-9.070001e-02 0.000000e+00
-9.060001e-02 0.000000e+00
-9.050000e-02 0.000000e+00
-9.040000e-02 0.000000e+00
-9.030001e-02 0.000000e+00
-9.020001e-02 0.000000e+00
-9.010001e-02 0.000000e+00
-9.000000e-02 0.000000e+00
-8.990000e-02 0.000000e+00
-8.980001e-02 0.000000e+00
-8.970001e-02 0.000000e+00
-8.960000e-02 0.000000e+00
-8.950001e-02 0.000000e+00
-8.940001e-02 0.000000e+00
-8.930001e-02 0.000000e+00
-8.920000e-02 0.000000e+00
-8.910000e-02 0.000000e+00
-8.900000e-02 0.000000e+00
-8.890001e-02 0.000000e+00
-8.880001e-02 0.000000e+00
-8.870000e-02 0.000000e+00
-8.860001e-02 0.000000e+00
-8.850001e-02 0.000000e+00
-8.840001e-02 0.000000e+00
-8.830000e-02 0.000000e+00
-8.820000e-02 0.000000e+00
-8.810000e-02 0.000000e+00
-8.800001e-02 0.000000e+00
-8.790001e-02 0.000000e+00
-8.780001e-02 0.000000e+00
-8.770001e-02 0.000000e+00
-8.760001e-02 0.000000e+00
-8.750001e-02 0.000000e+00
-8.740000e-02 0.000000e+00
-8.730000e-02 0.000000e+00
-8.720000e-02 0.000000e+00
-8.710001e-02 0.000000e+00
-8.700000e-02 0.000000e+00
-8.690001e-02 0.000000e+00
-8.680001e-02 0.000000e+00
-8.670001e-02 0.000000e+00
-8.660001e-02 0.000000e+00
-8.650000e-02 0.000000e+00
-8.640000e-02 0.000000e+00
-8.630000e-02 0.000000e+00
-8.620001e-02 0.000000e+00
-8.610000e-02 0.000000e+00
-8.600001e-02 0.000000e+00
-8.590001e-02 0.000000e+00
-8.580001e-02 0.000000e+00
-8.570001e-02 0.000000e+00
-8.560000e-02 0.000000e+00
-8.550000e-02 0.000000e+00
-8.540000e-02 0.000000e+00
-8.530001e-02 0.000000e+00
-8.520000e-02 0.000000e+00
-8.510001e-02 0.000000e+00
-8.500001e-02 0.000000e+00
-8.490001e-02 0.000000e+00
-8.480000e-02 0.000000e+00
-8.470000e-02 0.000000e+00
-8.460000e-02 0.000000e+00
-8.450001e-02 0.000000e+00
-8.440001e-02 0.000000e+00
-8.430000e-02 0.000000e+00
-8.420001e-02 0.000000e+00
-8.410001e-02 0.000000e+00
-8.400001e-02 0.000000e+00
-8.390000e-02 0.000000e+00
-8.380000e-02 0.000000e+00
-8.370000e-02 0.000000e+00
-8.360001e-02 0.000000e+00
-8.350001e-02 0.000000e+00
-8.340001e-02 0.000000e+00
-8.330001e-02 0.000000e+00
-8.320001e-02 0.000000e+00
-8.310001e-02 0.000000e+00
-8.300000e-02 0.000000e+00
-8.290000e-02 0.000000e+00
-8.280000e-02 0.000000e+00
-8.270001e-02 0.000000e+00
-8.260000e-02 0.000000e+00
-8.250001e-02 0.000000e+00
-8.240001e-02 0.000000e+00
-8.230001e-02 0.000000e+00
-8.220001e-02 0.000000e+00
-8.210000e-02 0.000000e+00
-8.200000e-02 0.000000e+00
-8.190000e-02 0.000000e+00
-8.180001e-02 0.000000e+00
-8.170000e-02 0.000000e+00
-8.160001e-02 0.000000e+00
-8.150001e-02 0.000000e+00
-8.140001e-02 0.000000e+00
-8.130001e-02 0.000000e+00
-8.120000e-02 0.000000e+00
-8.110000e-02 0.000000e+00
-8.100000e-02 0.000000e+00
-8.090001e-02 0.000000e+00
-8.080000e-02 0.000000e+00
-8.070001e-02 0.000000e+00
-8.060001e-02 0.000000e+00
-8.050001e-02 0.000000e+00
-8.040000e-02 0.000000e+00
-8.030000e-02 0.000000e+00
-8.020000e-02 0.000000e+00
-8.010001e-02 0.000000e+00
-8.000001e-02 0.000000e+00
-7.990000e-02 0.000000e+00
-7.980001e-02 0.000000e+00
-7.970001e-02 0.000000e+00
-7.960001e-02 0.000000e+00
-7.950000e-02 0.000000e+00
-7.940000e-02 0.000000e+00
-7.930000e-02 0.000000e+00
-7.920001e-02 0.000000e+00
-7.910001e-02 0.000000e+00
-7.900001e-02 0.000000e+00
-7.890001e-02 0.000000e+00
-7.880001e-02 0.000000e+00
-7.870001e-02 0.000000e+00
-7.860000e-02 0.000000e+00
-7.850000e-02 0.000000e+00
-7.840000e-02 0.000000e+00
-7.830001e-02 0.000000e+00
-7.820000e-02 0.000000e+00
-7.810001e-02 0.000000e+00
-7.800001e-02 0.000000e+00
-7.790001e-02 0.000000e+00
-7.780001e-02 0.000000e+00
-7.770000e-02 0.000000e+00
-7.760000e-02 0.000000e+00
-7.750000e-02 0.000000e+00
-7.740001e-02 0.000000e+00
-7.730000e-02 0.000000e+00
-7.720001e-02 0.000000e+00
-7.710001e-02 0.000000e+00
-7.700001e-02 0.000000e+00
-7.690001e-02 0.000000e+00
-7.680000e-02 0.000000e+00
-7.670000e-02 0.000000e+00
-7.660001e-02 0.000000e+00
-7.650001e-02 0.000000e+00
-7.640000e-02 0.000000e+00
-7.630001e-02 0.000000e+00
-7.620001e-02 0.000000e+00
-7.610001e-02 0.000000e+00
-7.600001e-02 0.000000e+00
-7.590000e-02 0.000000e+00
-7.580000e-02 0.000000e+00
-7.570001e-02 0.000000e+00
-7.560001e-02 0.000000e+00
-7.550001e-02 0.000000e+00
-7.540001e-02 0.000000e+00
-7.530001e-02 0.000000e+00
-7.520001e-02 0.000000e+00
-7.510000e-02 1.401298e-45
-7.500000e-02 1.401298e-45
-7.490000e-02 1.401298e-45
-7.480001e-02 1.401298e-45
-7.470001e-02 0.000000e+00
-7.460001e-02 0.000000e+00
-7.450001e-02 -1.401298e-45
-7.440001e-02 -1.401298e-45
-7.430001e-02 -2.802597e-45
-7.420000e-02 -4.203895e-45
-7.410000e-02 -5.605194e-45
-7.400000e-02 -7.006492e-45
-7.390001e-02 -8.407791e-45
-7.380001e-02 -8.407791e-45
-7.370001e-02 -9.809089e-45
-7.360001e-02 -8.407791e-45
-7.350001e-02 -5.605194e-45
-7.340001e-02 -1.401298e-45
-7.330000e-02 5.605194e-45
-7.320000e-02 1.261169e-44
-7.310000e-02 2.242078e-44
-7.300001e-02 3.082857e-44
-7.290000e-02 4.203895e-44
-7.280001e-02 5.324934e-44
-7.270001e-02 6.165713e-44
-7.260001e-02 6.726233e-44
-7.250001e-02 6.726233e-44
-7.240000e-02 6.445973e-44
-7.230000e-02 5.605194e-44
-7.220001e-02 4.203895e-44
-7.210001e-02 1.681558e-44
-7.200000e-02 -1.681558e-44
-7.190001e-02 -5.885454e-44
-7.180001e-02 -1.079000e-43
-7.170001e-02 -1.653532e-43
-7.160001e-02 -2.284116e-43
-7.150000e-02 -2.928714e-43
-7.140000e-02 -3.559298e-43
-7.130001e-02 -4.133830e-43
-7.120001e-02 -4.568233e-43
-7.110001e-02 -4.820467e-43
-7.100001e-02 -4.820467e-43
-7.090001e-02 -4.484155e-43
-7.080001e-02 -3.769493e-43
-7.070000e-02 -2.564376e-43
-7.060000e-02 -8.407791e-44
-7.050000e-02 1.429324e-43
-7.040001e-02 4.245934e-43
-7.030001e-02 7.567012e-43
-7.020001e-02 1.132249e-42
-7.010001e-02 1.538626e-42
-7.000001e-02 1.957614e-42
-6.990001e-02 2.363991e-42
-6.980000e-02 2.728328e-42
-6.970000e-02 3.015594e-42
-6.960000e-02 3.183750e-42
-6.950001e-02 3.189355e-42
-6.940001e-02 2.990371e-42
-6.930001e-02 2.541955e-42
-6.920001e-02 1.804872e-42
-6.910001e-02 7.482934e-43
-6.900001e-02 -6.445973e-43
-6.890000e-02 -2.372398e-42
-6.880000e-02 -4.419695e-42
-6.870000e-02 -6.738844e-42
-6.860001e-02 -9.252774e-42
-6.850000e-02 -1.185218e-41
-6.840001e-02 -1.439414e-41
-6.830001e-02 -1.670068e-41
-6.820001e-02 -1.856160e-41
-6.810001e-02 -1.973869e-41
-6.800000e-02 -1.997551e-41
-6.790000e-02 -1.901001e-41
-6.780001e-02 -1.658297e-41
-6.770001e-02 -1.246315e-41
-6.760000e-02 -6.466992e-42
-6.750001e-02 1.521810e-42
-6.740001e-02 1.151867e-41
-6.730001e-02 2.342411e-41
-6.720001e-02 3.698587e-41
-6.710000e-02 5.178078e-41
-6.700000e-02 6.720627e-41
-6.690001e-02 8.245801e-41
-6.680001e-02 9.654106e-41
-6.670001e-02 1.082727e-40
-6.660001e-02 1.163176e-40
-6.650001e-02 1.192253e-40
-6.640001e-02 1.154992e-40
-6.630000e-02 1.036681e-40
-6.620000e-02 8.239635e-41
-6.610000e-02 5.058828e-41
-6.600001e-02 7.526374e-42
-6.590001e-02 -4.699114e-41
-6.580001e-02 -1.125145e-40
-6.570001e-02 -1.878020e-40
-6.560001e-02 -2.706958e-40
-6.550001e-02 -3.580346e-40
-6.540000e-02 -4.455905e-40
-6.530000e-02 -5.280737e-40
-6.520000e-02 -5.991756e-40
-6.510001e-02 -6.517327e-40
-6.500001e-02 -6.779188e-40
-6.490001e-02 -6.695852e-40
-6.480001e-02 -6.186663e-40
-6.470001e-02 -5.176985e-40
-6.460001e-02 -3.604140e-40
-6.450000e-02 -1.424168e-40
-6.440000e-02 1.380980e-40
-6.430000e-02 4.795944e-40
-6.420001e-02 8.764954e-40
-6.410000e-02 1.318522e-39
-6.400001e-02 1.790191e-39
-6.390001e-02 2.270492e-39
-6.380001e-02 2.732801e-39
-6.370001e-02 3.145153e-39
-6.360000e-02 3.470862e-39
-6.350000e-02 3.669594e-39
-6.340001e-02 3.698904e-39
-6.330001e-02 3.516266e-39
-6.320000e-02 3.081588e-39
-6.310001e-02 2.360182e-39
-6.300001e-02 1.326096e-39
-6.290001e-02 -3.427296e-41
-6.280001e-02 -1.718463e-39
-6.270000e-02 -3.704313e-39
-6.260000e-02 -5.946637e-39
-6.250001e-02 -8.374499e-39
-6.240001e-02 -1.088937e-38
-6.230001e-02 -1.336449e-38
-6.220001e-02 -1.564574e-38
-6.210000e-02 -1.755430e-38
-6.200001e-02 -1.889146e-38
-6.190000e-02 -1.944559e-38
-6.180001e-02 -1.900157e-38
-6.170001e-02 -1.735255e-38
-6.160001e-02 -1.431386e-38
-6.150001e-02 -9.738951e-39
-6.140001e-02 -3.536628e-39
-6.130001e-02 4.310999e-39
-6.120001e-02 1.373069e-38
-6.110001e-02 2.454158e-38
-6.100000e-02 3.644110e-38
-6.090001e-02 4.899488e-38
-6.080000e-02 6.163193e-38
-6.070001e-02 7.364661e-38
-6.060001e-02 8.420893e-38
-6.050001e-02 9.238421e-38
-6.040001e-02 9.716323e-38
-6.030001e-02 9.750345e-38
-6.020001e-02 9.238108e-38
-6.010001e-02 8.085413e-38
-6.000001e-02 6.213422e-38
-5.990001e-02 3.566599e-38
-5.980001e-02 1.210425e-39
-5.970000e-02 -4.107133e-38
-5.960001e-02 -9.053850e-38
-5.950001e-02 -1.460012e-37
-5.940001e-02 -2.056665e-37
-5.930001e-02 -2.671078e-37
-5.920001e-02 -3.272623e-37
-5.910001e-02 -3.824649e-37
-5.900001e-02 -4.285234e-37
-5.890001e-02 -4.608393e-37
-5.880001e-02 -4.745782e-37
-5.870001e-02 -4.648904e-37
-5.860000e-02 -4.271799e-37
-5.850001e-02 -3.574172e-37
-5.840001e-02 -2.524876e-37
-5.830001e-02 -1.105629e-37
-5.820001e-02 6.851953e-38
-5.810001e-02 2.828888e-37
-5.800001e-02 5.283089e-37
-5.790001e-02 7.979079e-37
-5.780001e-02 1.081996e-36
-5.770001e-02 1.368004e-36
-5.760001e-02 1.640565e-36
-5.750000e-02 1.881774e-36
-5.740000e-02 2.071638e-36
-5.730001e-02 2.188740e-36
-5.720001e-02 2.211124e-36
-5.710001e-02 2.117386e-36
-5.700000e-02 1.887974e-36
-5.690001e-02 1.506655e-36
-5.680001e-02 9.620944e-37
-5.670001e-02 2.495148e-37
-5.660000e-02 -6.276798e-37
-5.650000e-02 -1.656381e-36
-5.640001e-02 -2.812475e-36
-5.630001e-02 -4.059872e-36
-5.620001e-02 -5.349994e-36
-5.610000e-02 -6.621839e-36
-5.600001e-02 -7.802737e-36
-5.590001e-02 -8.809898e-36
-5.580001e-02 -9.552823e-36
-5.570000e-02 -9.936640e-36
-5.560001e-02 -9.866344e-36
-5.550001e-02 -9.251917e-36
-5.540001e-02 -8.014212e-36
-5.530000e-02 -6.091450e-36
-5.520000e-02 -3.446083e-36
-5.510001e-02 -7.173698e-38
-5.500001e-02 4.000123e-36
-5.490001e-02 8.694234e-36
-5.480000e-02 1.388674e-35
-5.470001e-02 1.940202e-35
-5.460001e-02 2.501175e-35
-5.450001e-02 3.043648e-35
-5.440000e-02 3.535038e-35
-5.430000e-02 3.938933e-35
-5.420001e-02 4.216278e-35
-5.410001e-02 4.326922e-35
-5.400001e-02 4.231543e-35
-5.390000e-02 3.893904e-35
-5.380001e-02 3.283387e-35
-5.370001e-02 2.377731e-35
-5.360001e-02 1.165863e-35
-5.350000e-02 -3.493169e-36
-5.340001e-02 -2.148336e-35
-5.330001e-02 -4.192929e-35
-5.320001e-02 -6.424372e-35
-5.310000e-02 -8.762587e-35
-5.300000e-02 -1.110619e-34
-5.290001e-02 -1.333366e-34
-5.280001e-02 -1.530584e-34
-5.270001e-02 -1.686981e-34
-5.260000e-02 -1.786423e-34
-5.250001e-02 -1.812616e-34
-5.240001e-02 -1.749932e-34
-5.230001e-02 -1.584350e-34
-5.220000e-02 -1.304500e-34
-5.210000e-02 -9.027618e-35
-5.200001e-02 -3.763844e-35
-5.190001e-02 2.714434e-35
-5.180001e-02 1.030624e-34
-5.170000e-02 1.883360e-34
-5.160001e-02 2.803616e-34
-5.150001e-02 3.756900e-34
-5.140001e-02 4.700458e-34
-5.130000e-02 5.583914e-34
-5.120001e-02 6.350443e-34
-5.110001e-02 6.938488e-34
-5.100001e-02 7.284043e-34
-5.090000e-02 7.323501e-34
-5.080000e-02 6.996988e-34
-5.070001e-02 6.252156e-34
-5.060001e-02 5.048260e-34
-5.050001e-02 3.360425e-34
-5.040000e-02 1.183859e-34
-5.030001e-02 -1.462170e-34
-5.020001e-02 -4.530864e-34
-5.010001e-02 -7.945203e-34
-5.000000e-02 -1.159630e-33
-4.990001e-02 -1.534309e-33
-4.980001e-02 -1.901358e-33
-4.970001e-02 -2.240800e-33
-4.960001e-02 -2.530376e-33
-4.950000e-02 -2.746273e-33
-4.940001e-02 -2.864035e-33
-4.930001e-02 -2.859698e-33
-4.920001e-02 -2.711085e-33
-4.910000e-02 -2.399256e-33
-4.900001e-02 -1.910051e-33
-4.890001e-02 -1.235670e-33
-4.880001e-02 -3.762114e-34
-4.870000e-02 6.589093e-34
-4.860000e-02 1.849758e-33
-4.850001e-02 3.165001e-33
-4.840001e-02 4.561432e-33
-4.830001e-02 5.984033e-33
-4.820000e-02 7.366611e-33
-4.810001e-02 8.633133e-33
-4.800001e-02 9.699787e-33
-4.790001e-02 1.047779e-32
-4.780000e-02 1.087694e-32
-4.770001e-02 1.080987e-32
-4.760001e-02 1.019692e-32
-4.750001e-02 8.971448e-33
-4.740001e-02 7.085424e-33
-4.730000e-02 4.515115e-33
-4.720001e-02 1.266490e-33
-4.710001e-02 -2.619867e-33
-4.700001e-02 -7.064738e-33
-4.690000e-02 -1.194747e-32
-4.680001e-02 -1.710474e-32
-4.670001e-02 -2.233124e-32
-4.660001e-02 -2.738254e-32
-4.650000e-02 -3.198038e-32
-4.640000e-02 -3.582061e-32
-4.630001e-02 -3.858363e-32
-4.620001e-02 -3.994755e-32
-4.610001e-02 -3.960359e-32
-4.600000e-02 -3.727348e-32
-4.590001e-02 -3.272838e-32
-4.580001e-02 -2.580846e-32
-4.570001e-02 -1.644258e-32
-4.560000e-02 -4.666771e-33
-4.550001e-02 9.359341e-33
-4.540001e-02 2.533939e-32
-4.530001e-02 4.283164e-32
-4.520001e-02 6.124602e-32
-4.510000e-02 7.984789e-32
-4.500001e-02 9.776949e-32
-4.490001e-02 1.140299e-31
-4.480001e-02 1.275637e-31
-4.470000e-02 1.372585e-31
-4.460001e-02 1.420011e-31
-4.450001e-02 1.407317e-31
-4.440001e-02 1.325032e-31
-4.430000e-02 1.165465e-31
-4.420000e-02 9.233678e-32
-4.410001e-02 5.965932e-32
-4.400001e-02 1.867093e-32
-4.390001e-02 -3.004641e-32
-4.380000e-02 -8.544369e-32
-4.370001e-02 -1.459787e-31
-4.360001e-02 -2.096095e-31
-4.350001e-02 -2.738105e-31
-4.340000e-02 -3.356154e-31
-4.330001e-02 -3.916867e-31
-4.320001e-02 -4.384164e-31
-4.310001e-02 -4.720537e-31
-4.300001e-02 -4.888620e-31
-4.290000e-02 -4.852998e-31
-4.280001e-02 -4.582211e-31
-4.270001e-02 -4.050893e-31
-4.260001e-02 -3.241963e-31
-4.250000e-02 -2.148766e-31
-4.240001e-02 -7.770650e-32
-4.230001e-02 8.532539e-32
-4.220001e-02 2.706868e-31
-4.210000e-02 4.732242e-31
-4.200000e-02 6.861495e-31
-4.190001e-02 9.011027e-31
-4.180001e-02 1.108300e-30
-4.170001e-02 1.296770e-30
-4.160000e-02 1.454688e-30
-4.150001e-02 1.569801e-30
-4.140001e-02 1.629935e-30
-4.130001e-02 1.623585e-30
-4.120000e-02 1.540562e-30
-4.110001e-02 1.372675e-30
-4.100001e-02 1.114429e-30
-4.090001e-02 7.636994e-31
-4.080001e-02 3.223573e-31
-4.070000e-02 -2.032046e-31
-4.060001e-02 -8.016716e-31
-4.050001e-02 -1.456579e-30
-4.040001e-02 -2.146290e-30
-4.030000e-02 -2.844211e-30
-4.020001e-02 -3.519273e-30
-4.010001e-02 -4.136693e-30
-4.000001e-02 -4.659022e-30
-3.990000e-02 -5.047482e-30
-3.980000e-02 -5.263561e-30
-3.970001e-02 -5.270835e-30
-3.960001e-02 -5.036980e-30
-3.950001e-02 -4.535881e-30
-3.940000e-02 -3.749787e-30
-3.930001e-02 -2.671399e-30
-3.920001e-02 -1.305782e-30
-3.910001e-02 3.279859e-31
-3.900000e-02 2.195588e-30
-3.890001e-02 4.246743e-30
-3.880001e-02 6.415119e-30
-3.870001e-02 8.618977e-30
-3.860001e-02 1.076262e-29
-3.850000e-02 1.273873e-29
-3.840001e-02 1.443154e-29
-3.830001e-02 1.572100e-29
-3.820001e-02 1.648762e-29
-3.810000e-02 1.661813e-29
-3.800001e-02 1.601165e-29
-3.790001e-02 1.458626e-29
-3.780001e-02 1.228557e-29
-3.770000e-02 9.085163e-30
-3.760000e-02 4.998418e-30
-3.750001e-02 8.148252e-32
-3.740001e-02 -5.563111e-30
-3.730001e-02 -1.178445e-29
-3.720000e-02 -1.838328e-29
-3.710001e-02 -2.511425e-29
-3.700001e-02 -3.169075e-29
-3.690001e-02 -3.779231e-29
-3.680000e-02 -4.307458e-29
-3.670001e-02 -4.718190e-29
-3.660001e-02 -4.976195e-29
-3.650001e-02 -5.048234e-29
-3.640001e-02 -4.904836e-29
-3.630000e-02 -4.522136e-29
-3.620001e-02 -3.883690e-29
-3.610001e-02 -2.982197e-29
-3.600001e-02 -1.821010e-29
-3.590000e-02 -4.153873e-30
-3.580001e-02 1.206631e-29
-3.570001e-02 3.003781e-29
-3.560001e-02 4.921631e-29
-3.550000e-02 6.893189e-29
-3.540000e-02 8.840088e-29
-3.530001e-02 1.067436e-28
-3.520001e-02 1.230083e-28
-3.510001e-02 1.362003e-28
-3.500000e-02 1.453170e-28
-3.490001e-02 1.493877e-28
-3.480001e-02 1.475171e-28
-3.470001e-02 1.389335e-28
-3.460000e-02 1.230379e-28
-3.450001e-02 9.945555e-29
-3.440001e-02 6.808639e-29
-3.430001e-02 2.915357e-29
-3.420001e-02 -1.675286e-29
-3.410000e-02 -6.863985e-29
-3.400001e-02 -1.250864e-28
-3.390001e-02 -1.842333e-28
-3.380001e-02 -2.437928e-28
-3.370000e-02 -3.010810e-28
-3.360001e-02 -3.530788e-28
-3.350001e-02 -3.965234e-28
-3.340001e-02 -4.280331e-28
-3.330000e-02 -4.442662e-28
-3.320001e-02 -4.421089e-28
-3.310001e-02 -4.188903e-28
-3.300001e-02 -3.726123e-28
-3.290001e-02 -3.021825e-28
-3.280000e-02 -2.076332e-28
-3.270001e-02 -9.030782e-29
-3.260001e-02 4.700779e-29
-3.250001e-02 2.000301e-28
-3.240000e-02 3.630176e-28
-3.230001e-02 5.289219e-28
-3.220001e-02 6.896569e-28
-3.210001e-02 8.364853e-28
-3.200001e-02 9.605100e-28
-3.190000e-02 1.053243e-27
-3.180001e-02 1.107215e-27
-3.170001e-02 1.116574e-27
-3.160001e-02 1.077612e-27
-3.150000e-02 9.891621e-28
-3.140001e-02 8.528043e-28
-3.130001e-02 6.728236e-28
-3.120001e-02 4.559002e-28
-3.110000e-02 2.105206e-28
-3.100001e-02 -5.385900e-29
-3.090001e-02 -3.278292e-28
-3.080001e-02 -6.031179e-28
-3.070001e-02 -8.736143e-28
-3.060000e-02 -1.136161e-27
-3.050001e-02 -1.390941e-27
-3.040001e-02 -1.641296e-27
-3.030001e-02 -1.892850e-27
-3.020000e-02 -2.151886e-27
-3.010001e-02 -2.422987e-27
-3.000001e-02 -2.706103e-27
-2.990001e-02 -2.993310e-27
-2.980001e-02 -3.265644e-27
-2.970000e-02 -3.490536e-27
-2.960001e-02 -3.620426e-27
-2.950001e-02 -3.593157e-27
-2.940001e-02 -3.334718e-27
-2.930000e-02 -2.764754e-27
-2.920001e-02 -1.804999e-27
-2.910001e-02 -3.905285e-28
-2.900001e-02 1.516779e-27
-2.890000e-02 3.913549e-27
-2.880001e-02 6.740502e-27
-2.870001e-02 9.870240e-27
-2.860001e-02 1.309942e-26
-2.850001e-02 1.614769e-26
-2.840000e-02 1.866555e-26
-2.830001e-02 2.025294e-26
-2.820001e-02 2.048943e-26
-2.810001e-02 1.897593e-26
-2.800000e-02 1.538623e-26
-2.790001e-02 9.525046e-27
-2.780001e-02 1.387646e-27
-2.770001e-02 -8.785750e-27
-2.760001e-02 -2.046865e-26
-2.750000e-02 -3.282871e-26
-2.740001e-02 -4.473841e-26
-2.730001e-02 -5.482316e-26
-2.720001e-02 -6.155177e-26
-2.710000e-02 -6.337031e-26
-2.700001e-02 -5.887562e-26
-2.690001e-02 -4.701909e-26
-2.680001e-02 -2.732465e-26
-2.670000e-02 -9.941959e-29
-2.660001e-02 3.339036e-26
-2.650001e-02 7.080836e-26
-2.640001e-02 1.087336e-25
-2.630001e-02 1.427707e-25
-2.620000e-02 1.678062e-25
-2.610001e-02 1.784213e-25
-2.600001e-02 1.694560e-25
-2.590001e-02 1.366978e-25
-2.580000e-02 7.764999e-26
-2.570001e-02 -7.690956e-27
-2.560001e-02 -1.161382e-25
-2.550001e-02 -2.408028e-25
-2.540001e-02 -3.708792e-25
-2.530000e-02 -4.918369e-25
-2.520001e-02 -5.861091e-25
-2.510001e-02 -6.343343e-25
-2.500001e-02 -6.171610e-25
-2.490000e-02 -5.175578e-25
-2.480001e-02 -3.235003e-25
-2.470001e-02 -3.082330e-26
-2.460001e-02 3.540497e-25
-2.450000e-02 8.118533e-25
-2.440001e-02 1.309100e-24
-2.430001e-02 1.797975e-24
-2.420001e-02 2.217882e-24
-2.410001e-02 2.498906e-24
-2.400000e-02 2.567343e-24
-2.390001e-02 2.353212e-24
-2.380001e-02 1.799455e-24
-2.370001e-02 8.722138e-25
-2.360000e-02 -4.286920e-25
-2.350001e-02 -2.060235e-24
-2.340001e-02 -3.928954e-24
-2.330001e-02 -5.887493e-24
-2.320001e-02 -7.736354e-24
-2.310000e-02 -9.232097e-24
-2.300001e-02 -1.010282e-23
-2.290001e-02 -1.007119e-23
-2.280001e-02 -8.884518e-24
-2.270000e-02 -6.350293e-24
-2.260001e-02 -2.374842e-24
-2.250001e-02 2.998543e-24
-2.240001e-02 9.556378e-24
-2.230000e-02 1.689175e-23
-2.220001e-02 2.439642e-23
-2.210001e-02 3.127335e-23
-2.200001e-02 3.657381e-23
-2.190001e-02 3.926169e-23
-2.180000e-02 3.830518e-23
-2.170001e-02 3.279315e-23
-2.160001e-02 2.206998e-23
-2.150001e-02 5.878966e-24
-2.140000e-02 -1.549940e-23
-2.130001e-02 -4.113076e-23
-2.120001e-02 -6.935066e-23
-2.110001e-02 -9.774819e-23
-2.100001e-02 -1.232274e-22
-2.090000e-02 -1.421606e-22
-2.080001e-02 -1.506423e-22
-2.070001e-02 -1.448420e-22
-2.060001e-02 -1.214449e-22
-2.050000e-02 -7.815569e-23
-2.040001e-02 -1.422810e-23
-2.030001e-02 6.903169e-23
-2.020001e-02 1.678479e-22
-2.010000e-02 2.757139e-22
-2.000001e-02 3.833559e-22
-1.990001e-02 4.789867e-22
-1.980001e-02 5.488997e-22
-1.970001e-02 5.784287e-22
-1.960000e-02 5.532714e-22
-1.950001e-02 4.611280e-22
-1.940001e-02 2.935664e-22
-1.930001e-02 4.797332e-23
-1.920000e-02 -2.705930e-22
-1.910001e-02 -6.478729e-22
-1.900001e-02 -1.059446e-21
-1.890001e-02 -1.470596e-21
-1.880001e-02 -1.837235e-21
-1.870000e-02 -2.108065e-21
-1.860001e-02 -2.228081e-21
-1.850001e-02 -2.143403e-21
-1.840001e-02 -1.807270e-21
-1.830000e-02 -1.186885e-21
-1.820001e-02 -2.706125e-22
-1.810001e-02 9.251371e-22
-1.800001e-02 2.350126e-21
-1.790000e-02 3.916516e-21
-1.780001e-02 5.498020e-21
-1.770001e-02 6.932829e-21
-1.760001e-02 8.031016e-21
-1.750001e-02 8.586802e-21
-1.740000e-02 8.395718e-21
-1.730001e-02 7.276146e-21
-1.720001e-02 5.094174e-21
-1.710001e-02 1.790087e-21
-1.700000e-02 -2.595821e-21
-1.690001e-02 -7.900915e-21
-1.680001e-02 -1.382457e-20
-1.670001e-02 -1.992253e-20
-1.660001e-02 -2.561448e-20
-1.650001e-02 -3.020743e-20
-1.640001e-02 -3.293671e-20
-1.630001e-02 -3.302493e-20
-1.620001e-02 -2.975762e-20
-1.610000e-02 -2.257222e-20
-1.600001e-02 -1.115489e-20
-1.590001e-02 4.462603e-21
-1.580001e-02 2.381550e-20
-1.570000e-02 4.593962e-20
-1.560001e-02 6.933761e-20
-1.550001e-02 9.198993e-20
-1.540001e-02 1.114207e-19
-1.530001e-02 1.248263e-19
-1.520000e-02 1.292694e-19
-1.510001e-02 1.219366e-19
-1.500001e-02 1.004503e-19
-1.490001e-02 6.321725e-20
-1.480000e-02 9.789991e-21
-1.470001e-02 -5.879253e-20
-1.460001e-02 -1.397225e-19
-1.450001e-02 -2.282425e-19
-1.440001e-02 -3.176090e-19
-1.430001e-02 -3.992414e-19
-1.420001e-02 -4.630878e-19
-1.410001e-02 -4.982279e-19
-1.400001e-02 -4.937140e-19
-1.390000e-02 -4.396286e-19
-1.380001e-02 -3.283118e-19
-1.370001e-02 -1.556820e-19
-1.360001e-02 7.745320e-20
-1.350001e-02 3.642240e-19
-1.340001e-02 6.908112e-19
-1.330001e-02 1.036001e-18
-1.320001e-02 1.371334e-18
-1.310001e-02 1.661986e-18
-1.300000e-02 1.868474e-18
-1.290001e-02 1.949240e-18
-1.280001e-02 1.864077e-18
-1.270001e-02 1.578295e-18
-1.260000e-02 1.067402e-18
-1.250001e-02 3.220021e-19
-1.240001e-02 -6.474968e-19
-1.230001e-02 -1.806868e-18
-1.220001e-02 -3.095276e-18
-1.210001e-02 -4.424281e-18
-1.200001e-02 -5.679171e-18
-1.190001e-02 -6.723083e-18
-1.180001e-02 -7.404204e-18
-1.170000e-02 -7.566142e-18
-1.160001e-02 -7.061314e-18
-1.150001e-02 -5.766823e-18
-1.140001e-02 -3.601990e-18
-1.130001e-02 -5.463469e-19
-1.120001e-02 3.343467e-18
-1.110001e-02 7.919707e-18
-1.100001e-02 1.293440e-17
-1.090001e-02 1.803712e-17
-1.080000e-02 2.278159e-17
-1.070001e-02 2.664256e-17
-1.060001e-02 2.904398e-17
-1.050001e-02 2.939874e-17
-1.040000e-02 2.715910e-17
-1.030001e-02 2.187583e-17
-1.020001e-02 1.326302e-17