-1.200000e-01 0.000000e+00
-1.199000e-01 0.000000e+00
-1.198000e-01 0.000000e+00
-1.197000e-01 0.000000e+00
-1.196000e-01 0.000000e+00
-1.195000e-01 0.000000e+00
-1.194000e-01 0.000000e+00
-1.193000e-01 0.000000e+00
-1.192000e-01 0.000000e+00
-1.191000e-01 0.000000e+00
-1.190000e-01 0.000000e+00
-1.189000e-01 0.000000e+00
-1.188000e-01 0.000000e+00
-1.187000e-01 0.000000e+00
-1.186000e-01 0.000000e+00
-1.185000e-01 0.000000e+00
-1.184000e-01 0.000000e+00
-1.183000e-01 0.000000e+00
-1.182000e-01 0.000000e+00
-1.181000e-01 0.000000e+00
-1.180000e-01 0.000000e+00
-1.179000e-01 0.000000e+00
-1.178000e-01 0.000000e+00
-1.177000e-01 0.000000e+00
-1.176000e-01 0.000000e+00
-1.175000e-01 0.000000e+00
-1.174000e-01 0.000000e+00
-1.173000e-01 0.000000e+00
-1.172000e-01 0.000000e+00
-1.171000e-01 0.000000e+00
-1.170000e-01 0.000000e+00
-1.169000e-01 0.000000e+00
-1.168000e-01 0.000000e+00
-1.167000e-01 0.000000e+00
-1.166000e-01 0.000000e+00
-1.165000e-01 0.000000e+00
-1.164000e-01 0.000000e+00
-1.163000e-01 0.000000e+00
-1.162000e-01 0.000000e+00
-1.161000e-01 0.000000e+00
-1.160000e-01 0.000000e+00
-1.159000e-01 0.000000e+00
-1.158000e-01 0.000000e+00
-1.157000e-01 0.000000e+00
-1.156000e-01 0.000000e+00
-1.155000e-01 0.000000e+00
-1.154000e-01 0.000000e+00
-1.153000e-01 0.000000e+00
-1.152000e-01 0.000000e+00
-1.151000e-01 0.000000e+00
-1.150000e-01 0.000000e+00
-1.149000e-01 0.000000e+00
-1.148000e-01 0.000000e+00
-1.147000e-01 0.000000e+00
-1.146000e-01 0.000000e+00
-1.145000e-01 0.000000e+00
-1.144000e-01 0.000000e+00
-1.143000e-01 0.000000e+00
-1.142000e-01 0.000000e+00
-1.141000e-01 0.000000e+00
-1.140000e-01 0.000000e+00
-1.139000e-01 0.000000e+00
-1.138000e-01 0.000000e+00
-1.137000e-01 0.000000e+00
-1.136000e-01 0.000000e+00
-1.135000e-01 0.000000e+00
-1.134000e-01 0.000000e+00
-1.133000e-01 0.000000e+00
-1.132000e-01 0.000000e+00
-1.131000e-01 0.000000e+00
-1.130000e-01 0.000000e+00
-1.129000e-01 0.000000e+00
-1.128000e-01 0.000000e+00
-1.127000e-01 0.000000e+00
-1.126000e-01 0.000000e+00
-1.125000e-01 0.000000e+00
-1.124000e-01 0.000000e+00
-1.123000e-01 0.000000e+00
-1.122000e-01 0.000000e+00
-1.121000e-01 0.000000e+00
-1.120000e-01 0.000000e+00
-1.119000e-01 0.000000e+00
-1.118000e-01 0.000000e+00
-1.117000e-01 0.000000e+00
-1.116000e-01 0.000000e+00
-1.115000e-01 0.000000e+00
-1.114000e-01 0.000000e+00
-1.113000e-01 0.000000e+00
-1.112000e-01 0.000000e+00
-1.111000e-01 0.000000e+00
-1.110000e-01 0.000000e+00
-1.109000e-01 0.000000e+00
-1.108000e-01 0.000000e+00
-1.107000e-01 0.000000e+00
-1.106000e-01 0.000000e+00
-1.105000e-01 0.000000e+00
-1.104000e-01 0.000000e+00
-1.103000e-01 0.000000e+00
-1.102000e-01 0.000000e+00
-1.101000e-01 0.000000e+00
-1.100000e-01 0.000000e+00
-1.099000e-01 0.000000e+00
-1.098000e-01 0.000000e+00
-1.097000e-01 0.000000e+00
-1.096000e-01 0.000000e+00
-1.095000e-01 0.000000e+00
-1.094000e-01 0.000000e+00
-1.093000e-01 0.000000e+00
-1.092000e-01 0.000000e+00
-1.091000e-01 0.000000e+00
-1.090000e-01 0.000000e+00
-1.089000e-01 0.000000e+00
-1.088000e-01 0.000000e+00
-1.087000e-01 0.000000e+00
-1.086000e-01 0.000000e+00
-1.085000e-01 0.000000e+00
-1.084000e-01 0.000000e+00
-1.083000e-01 0.000000e+00
-1.082000e-01 0.000000e+00
-1.081000e-01 0.000000e+00
-1.080000e-01 0.000000e+00
-1.079000e-01 0.000000e+00
-1.078000e-01 0.000000e+00
-1.077000e-01 0.000000e+00
-1.076000e-01 0.000000e+00
-1.075000e-01 0.000000e+00
-1.074000e-01 0.000000e+00
-1.073000e-01 0.000000e+00
-1.072000e-01 0.000000e+00
-1.071000e-01 0.000000e+00
-1.070000e-01 0.000000e+00
-1.069000e-01 0.000000e+00
-1.068000e-01 0.000000e+00
-1.067000e-01 0.000000e+00
-1.066000e-01 0.000000e+00
-1.065000e-01 0.000000e+00
-1.064000e-01 0.000000e+00
-1.063000e-01 0.000000e+00
-1.062000e-01 0.000000e+00
-1.061000e-01 0.000000e+00
-1.060000e-01 0.000000e+00
-1.059000e-01 0.000000e+00
-1.058000e-01 0.000000e+00
-1.057000e-01 0.000000e+00
-1.056000e-01 0.000000e+00
-1.055000e-01 0.000000e+00
-1.054000e-01 0.000000e+00
-1.053000e-01 0.000000e+00
-1.052000e-01 0.000000e+00
-1.051000e-01 0.000000e+00
-1.050000e-01 0.000000e+00
-1.049000e-01 0.000000e+00
-1.048000e-01 0.000000e+00
-1.047000e-01 0.000000e+00
-1.046000e-01 0.000000e+00
-1.045000e-01 0.000000e+00
-1.044000e-01 0.000000e+00
-1.043000e-01 0.000000e+00
-1.042000e-01 0.000000e+00
-1.041000e-01 0.000000e+00
-1.040000e-01 0.000000e+00
-1.039000e-01 0.000000e+00
-1.038000e-01 0.000000e+00
-1.037000e-01 0.000000e+00
-1.036000e-01 0.000000e+00
-1.035000e-01 0.000000e+00
-1.034000e-01 0.000000e+00
-1.033000e-01 0.000000e+00
-1.032000e-01 0.000000e+00
-1.031000e-01 0.000000e+00
-1.030000e-01 0.000000e+00
-1.029000e-01 0.000000e+00
-1.028000e-01 0.000000e+00
-1.027000e-01 0.000000e+00
-1.026000e-01 0.000000e+00
-1.025000e-01 0.000000e+00
-1.024000e-01 0.000000e+00
-1.023000e-01 0.000000e+00
-1.022000e-01 0.000000e+00
-1.021000e-01 0.000000e+00
-1.020000e-01 0.000000e+00
-1.019000e-01 0.000000e+00
-1.018000e-01 0.000000e+00
-1.017000e-01 0.000000e+00
-1.016000e-01 0.000000e+00
-1.015000e-01 0.000000e+00
-1.014000e-01 0.000000e+00
-1.013000e-01 0.000000e+00
-1.012000e-01 0.000000e+00
-1.011000e-01 0.000000e+00
-1.010000e-01 0.000000e+00
-1.009000e-01 0.000000e+00
-1.008000e-01 0.000000e+00
-1.007000e-01 0.000000e+00
-1.006000e-01 0.000000e+00
-1.005000e-01 0.000000e+00
-1.004000e-01 0.000000e+00
-1.003000e-01 0.000000e+00
-1.002000e-01 0.000000e+00
-1.001000e-01 0.000000e+00
-1.000000e-01 0.000000e+00
-9.990001e-02 0.000000e+00
-9.980001e-02 0.000000e+00
-9.970000e-02 0.000000e+00
-9.960000e-02 0.000000e+00
-9.950001e-02 0.000000e+00
-9.940001e-02 0.000000e+00
-9.930000e-02 0.000000e+00
-9.920000e-02 0.000000e+00
-9.910001e-02 0.000000e+00
-9.900001e-02 0.000000e+00
-9.890001e-02 0.000000e+00
-9.880000e-02 0.000000e+00
-9.870000e-02 0.000000e+00
-9.860001e-02 0.000000e+00
-9.850001e-02 0.000000e+00
-9.840000e-02 0.000000e+00
-9.830001e-02 0.000000e+00
-9.820001e-02 0.000000e+00
-9.810001e-02 0.000000e+00
-9.800000e-02 0.000000e+00
-9.790000e-02 0.000000e+00
-9.780000e-02 0.000000e+00
-9.770001e-02 0.000000e+00
-9.760001e-02 0.000000e+00
-9.750000e-02 0.000000e+00
-9.740001e-02 0.000000e+00
-9.730001e-02 0.000000e+00
-9.720001e-02 0.000000e+00
-9.710000e-02 0.000000e+00
-9.700000e-02 0.000000e+00
-9.690000e-02 0.000000e+00
-9.680001e-02 0.000000e+00
-9.670001e-02 0.000000e+00
-9.660000e-02 0.000000e+00
-9.650001e-02 0.000000e+00
-9.640001e-02 0.000000e+00
-9.630001e-02 0.000000e+00
-9.620000e-02 0.000000e+00
-9.610000e-02 0.000000e+00
-9.600000e-02 0.000000e+00
-9.590001e-02 0.000000e+00
-9.580000e-02 0.000000e+00
-9.570000e-02 0.000000e+00
-9.560001e-02 0.000000e+00
-9.550001e-02 0.000000e+00
-9.540001e-02 0.000000e+00
-9.530000e-02 0.000000e+00
-9.520000e-02 0.000000e+00
-9.510001e-02 0.000000e+00
-9.500001e-02 0.000000e+00
-9.490000e-02 0.000000e+00
-9.480000e-02 0.000000e+00
-9.470001e-02 0.000000e+00
-9.460001e-02 0.000000e+00
-9.450001e-02 0.000000e+00
-9.440000e-02 0.000000e+00
-9.430000e-02 0.000000e+00
-9.420001e-02 0.000000e+00
-9.410001e-02 0.000000e+00
-9.400000e-02 0.000000e+00
-9.390001e-02 0.000000e+00
-9.380001e-02 0.000000e+00
-9.370001e-02 0.000000e+00
-9.360000e-02 0.000000e+00
-9.350000e-02 0.000000e+00
-9.340000e-02 0.000000e+00
-9.330001e-02 0.000000e+00
-9.320001e-02 0.000000e+00
-9.310000e-02 0.000000e+00
-9.300001e-02 0.000000e+00
-9.290001e-02 0.000000e+00
-9.280001e-02 0.000000e+00
-9.270000e-02 0.000000e+00
-9.260000e-02 0.000000e+00
-9.250000e-02 0.000000e+00
-9.240001e-02 0.000000e+00
-9.230001e-02 0.000000e+00
-9.220000e-02 0.000000e+00
-9.210001e-02 0.000000e+00
-9.200001e-02 0.000000e+00
-9.190001e-02 0.000000e+00
-9.180000e-02 0.000000e+00
-9.170000e-02 0.000000e+00
-9.160000e-02 0.000000e+00
-9.150001e-02 0.000000e+00
-9.140000e-02 0.000000e+00
-9.130000e-02 0.000000e+00
-9.120001e-02 0.000000e+00
-9.110001e-02 0.000000e+00
-9.100001e-02 0.000000e+00
-9.090000e-02 0.000000e+00
-9.080000e-02 0.000000e+00
-9.070001e-02 0.000000e+00
-9.060001e-02 0.000000e+00
-9.050000e-02 0.000000e+00
-9.040000e-02 0.000000e+00
-9.030001e-02 0.000000e+00
-9.020001e-02 0.000000e+00
-9.010001e-02 0.000000e+00
-9.000000e-02 0.000000e+00
-8.990000e-02 0.000000e+00
-8.980001e-02 0.000000e+00
-8.970001e-02 0.000000e+00
-8.960000e-02 0.000000e+00
-8.950001e-02 0.000000e+00
-8.940001e-02 0.000000e+00
-8.930001e-02 0.000000e+00
-8.920000e-02 0.000000e+00
-8.910000e-02 0.000000e+00
-8.900000e-02 0.000000e+00
-8.890001e-02 0.000000e+00
-8.880001e-02 0.000000e+00
-8.870000e-02 0.000000e+00
-8.860001e-02 0.000000e+00
-8.850001e-02 0.000000e+00
-8.840001e-02 0.000000e+00
-8.830000e-02 0.000000e+00
-8.820000e-02 0.000000e+00
-8.810000e-02 0.000000e+00
-8.800001e-02 0.000000e+00
-8.790001e-02 0.000000e+00
-8.780001e-02 0.000000e+00
-8.770001e-02 0.000000e+00
-8.760001e-02 0.000000e+00
-8.750001e-02 0.000000e+00
-8.740000e-02 0.000000e+00
-8.730000e-02 0.000000e+00
-8.720000e-02 0.000000e+00
-8.710001e-02 0.000000e+00
-8.700000e-02 0.000000e+00
-8.690001e-02 0.000000e+00
-8.680001e-02 0.000000e+00
-8.670001e-02 0.000000e+00
-8.660001e-02 0.000000e+00
-8.650000e-02 0.000000e+00
-8.640000e-02 0.000000e+00
-8.630000e-02 0.000000e+00
-8.620001e-02 0.000000e+00
-8.610000e-02 0.000000e+00
-8.600001e-02 0.000000e+00
-8.590001e-02 0.000000e+00
-8.580001e-02 0.000000e+00
-8.570001e-02 0.000000e+00
-8.560000e-02 0.000000e+00
-8.550000e-02 0.000000e+00
-8.540000e-02 0.000000e+00
-8.530001e-02 0.000000e+00
-8.520000e-02 0.000000e+00
-8.510001e-02 0.000000e+00
-8.500001e-02 0.000000e+00
-8.490001e-02 0.000000e+00
-8.480000e-02 0.000000e+00
-8.470000e-02 0.000000e+00
-8.460000e-02 0.000000e+00
-8.450001e-02 0.000000e+00
-8.440001e-02 0.000000e+00
-8.430000e-02 0.000000e+00
-8.420001e-02 0.000000e+00
-8.410001e-02 0.000000e+00
-8.400001e-02 0.000000e+00
-8.390000e-02 0.000000e+00
-8.380000e-02 0.000000e+00
-8.370000e-02 0.000000e+00
-8.360001e-02 0.000000e+00
-8.350001e-02 0.000000e+00
-8.340001e-02 0.000000e+00
-8.330001e-02 0.000000e+00
-8.320001e-02 0.000000e+00
-8.310001e-02 0.000000e+00
-8.300000e-02 0.000000e+00
-8.290000e-02 0.000000e+00
-8.280000e-02 0.000000e+00
-8.270001e-02 0.000000e+00
-8.260000e-02 0.000000e+00
-8.250001e-02 0.000000e+00
-8.240001e-02 0.000000e+00
-8.230001e-02 0.000000e+00
-8.220001e-02 0.000000e+00
-8.210000e-02 0.000000e+00
-8.200000e-02 0.000000e+00
-8.190000e-02 0.000000e+00
-8.180001e-02 0.000000e+00
-8.170000e-02 0.000000e+00
-8.160001e-02 0.000000e+00
-8.150001e-02 0.000000e+00
-8.140001e-02 0.000000e+00
-8.130001e-02 0.000000e+00
-8.120000e-02 0.000000e+00
-8.110000e-02 0.000000e+00
-8.100000e-02 0.000000e+00
-8.090001e-02 0.000000e+00
-8.080000e-02 0.000000e+00
-8.070001e-02 0.000000e+00
-8.060001e-02 0.000000e+00
-8.050001e-02 0.000000e+00
-8.040000e-02 0.000000e+00
-8.030000e-02 0.000000e+00
-8.020000e-02 0.000000e+00
-8.010001e-02 0.000000e+00
-8.000001e-02 0.000000e+00
-7.990000e-02 0.000000e+00
-7.980001e-02 0.000000e+00
-7.970001e-02 0.000000e+00
-7.960001e-02 0.000000e+00
-7.950000e-02 0.000000e+00
-7.940000e-02 0.000000e+00
-7.930000e-02 0.000000e+00
-7.920001e-02 0.000000e+00
-7.910001e-02 0.000000e+00
-7.900001e-02 0.000000e+00
-7.890001e-02 0.000000e+00
-7.880001e-02 0.000000e+00
-7.870001e-02 0.000000e+00
-7.860000e-02 0.000000e+00
-7.850000e-02 0.000000e+00
-7.840000e-02 0.000000e+00
-7.830001e-02 0.000000e+00
-7.820000e-02 0.000000e+00
-7.810001e-02 0.000000e+00
-7.800001e-02 0.000000e+00
-7.790001e-02 0.000000e+00
-7.780001e-02 0.000000e+00
-7.770000e-02 0.000000e+00
-7.760000e-02 0.000000e+00
-7.750000e-02 0.000000e+00
-7.740001e-02 0.000000e+00
-7.730000e-02 0.000000e+00
-7.720001e-02 0.000000e+00
-7.710001e-02 0.000000e+00
-7.700001e-02 0.000000e+00
-7.690001e-02 0.000000e+00
-7.680000e-02 0.000000e+00
-7.670000e-02 0.000000e+00
-7.660001e-02 0.000000e+00
-7.650001e-02 0.000000e+00
-7.640000e-02 0.000000e+00
-7.630001e-02 0.000000e+00
-7.620001e-02 0.000000e+00
-7.610001e-02 0.000000e+00
-7.600001e-02 0.000000e+00
-7.590000e-02 0.000000e+00
-7.580000e-02 0.000000e+00
-7.570001e-02 0.000000e+00
-7.560001e-02 0.000000e+00
-7.550001e-02 0.000000e+00
-7.540001e-02 0.000000e+00
-7.530001e-02 0.000000e+00
-7.520001e-02 0.000000e+00
-7.510000e-02 0.000000e+00
-7.500000e-02 0.000000e+00
-7.490000e-02 0.000000e+00
-7.480001e-02 0.000000e+00
-7.470001e-02 0.000000e+00
-7.460001e-02 0.000000e+00
-7.450001e-02 0.000000e+00
-7.440001e-02 0.000000e+00
-7.430001e-02 0.000000e+00
-7.420000e-02 0.000000e+00
-7.410000e-02 0.000000e+00
-7.400000e-02 0.000000e+00
-7.390001e-02 0.000000e+00
-7.380001e-02 0.000000e+00
-7.370001e-02 0.000000e+00
-7.360001e-02 0.000000e+00
-7.350001e-02 0.000000e+00
-7.340001e-02 0.000000e+00
-7.330000e-02 0.000000e+00
-7.320000e-02 0.000000e+00
-7.310000e-02 0.000000e+00
-7.300001e-02 0.000000e+00
-7.290000e-02 0.000000e+00
-7.280001e-02 0.000000e+00
-7.270001e-02 0.000000e+00
-7.260001e-02 0.000000e+00
-7.250001e-02 0.000000e+00
-7.240000e-02 0.000000e+00
-7.230000e-02 0.000000e+00
-7.220001e-02 0.000000e+00
-7.210001e-02 0.000000e+00
-7.200000e-02 0.000000e+00
-7.190001e-02 0.000000e+00
-7.180001e-02 0.000000e+00
-7.170001e-02 0.000000e+00
-7.160001e-02 0.000000e+00
-7.150000e-02 0.000000e+00
-7.140000e-02 0.000000e+00
-7.130001e-02 0.000000e+00
-7.120001e-02 0.000000e+00
-7.110001e-02 0.000000e+00
-7.100001e-02 0.000000e+00
-7.090001e-02 0.000000e+00
-7.080001e-02 0.000000e+00
-7.070000e-02 0.000000e+00
-7.060000e-02 0.000000e+00
-7.050000e-02 0.000000e+00
-7.040001e-02 0.000000e+00
-7.030001e-02 0.000000e+00
-7.020001e-02 0.000000e+00
-7.010001e-02 0.000000e+00
-7.000001e-02 0.000000e+00
-6.990001e-02 0.000000e+00
-6.980000e-02 0.000000e+00
-6.970000e-02 0.000000e+00
-6.960000e-02 0.000000e+00
-6.950001e-02 0.000000e+00
-6.940001e-02 0.000000e+00
-6.930001e-02 0.000000e+00
-6.920001e-02 0.000000e+00
-6.910001e-02 0.000000e+00
-6.900001e-02 0.000000e+00
-6.890000e-02 0.000000e+00
-6.880000e-02 0.000000e+00
-6.870000e-02 0.000000e+00
-6.860001e-02 0.000000e+00
-6.850000e-02 0.000000e+00
-6.840001e-02 0.000000e+00
-6.830001e-02 0.000000e+00
-6.820001e-02 0.000000e+00
-6.810001e-02 0.000000e+00
-6.800000e-02 0.000000e+00
-6.790000e-02 0.000000e+00
-6.780001e-02 0.000000e+00
-6.770001e-02 0.000000e+00
-6.760000e-02 0.000000e+00
-6.750001e-02 0.000000e+00
-6.740001e-02 0.000000e+00
-6.730001e-02 0.000000e+00
-6.720001e-02 0.000000e+00
-6.710000e-02 0.000000e+00
-6.700000e-02 0.000000e+00
-6.690001e-02 0.000000e+00
-6.680001e-02 0.000000e+00
-6.670001e-02 0.000000e+00
-6.660001e-02 0.000000e+00
-6.650001e-02 0.000000e+00
-6.640001e-02 0.000000e+00
-6.630000e-02 0.000000e+00
-6.620000e-02 0.000000e+00
-6.610000e-02 -1.401298e-45
-6.600001e-02 -2.802597e-45
-6.590001e-02 -2.802597e-45
-6.580001e-02 -2.802597e-45
-6.570001e-02 -2.802597e-45
-6.560001e-02 -2.802597e-45
-6.550001e-02 -1.401298e-45
-6.540000e-02 0.000000e+00
-6.530000e-02 1.401298e-45
-6.520000e-02 2.802597e-45
-6.510001e-02 2.802597e-45
-6.500001e-02 2.802597e-45
-6.490001e-02 2.802597e-45
-6.480001e-02 2.802597e-45
-6.470001e-02 2.802597e-45
-6.460001e-02 4.203895e-45
-6.450000e-02 5.605194e-45
-6.440000e-02 7.006492e-45
-6.430000e-02 8.407791e-45
-6.420001e-02 9.809089e-45
-6.410000e-02 8.407791e-45
-6.400001e-02 4.203895e-45
-6.390001e-02 1.401298e-45
-6.380001e-02 -2.802597e-45
-6.370001e-02 -7.006492e-45
-6.360000e-02 -1.121039e-44
-6.350000e-02 -1.541428e-44
-6.340001e-02 -1.821688e-44
-6.330001e-02 -2.101948e-44
-6.320000e-02 -2.382207e-44
-6.310001e-02 -2.662467e-44
-6.300001e-02 -2.942727e-44
-6.290001e-02 -3.363116e-44
-6.280001e-02 -3.783506e-44
-6.270000e-02 -4.344025e-44
-6.260000e-02 -4.764415e-44
-6.250001e-02 -4.764415e-44
-6.240001e-02 -4.344025e-44
-6.230001e-02 -3.363116e-44
-6.220001e-02 -1.821688e-44
-6.210000e-02 4.203895e-45
-6.200001e-02 3.082857e-44
-6.190000e-02 6.025583e-44
-6.180001e-02 8.968310e-44
-6.170001e-02 1.177091e-43
-6.160001e-02 1.443337e-43
-6.150001e-02 1.639519e-43
-6.140001e-02 1.779649e-43
-6.130001e-02 1.863727e-43
-6.120001e-02 1.863727e-43
-6.110001e-02 1.779649e-43
-6.100000e-02 1.611493e-43
-6.090001e-02 1.359260e-43
-6.080000e-02 9.949219e-44
-6.070001e-02 5.324934e-44
-6.060001e-02 -5.605194e-45
-6.050001e-02 -7.847271e-44
-6.040001e-02 -1.639519e-43
-6.030001e-02 -2.592402e-43
-6.020001e-02 -3.629363e-43
-6.010001e-02 -4.680337e-43
-6.000001e-02 -5.675259e-43
-5.990001e-02 -6.558077e-43
-5.980001e-02 -7.244713e-43
-5.970000e-02 -7.637077e-43
-5.960001e-02 -7.679116e-43
-5.950001e-02 -7.300765e-43
-5.940001e-02 -6.445973e-43
-5.930001e-02 -5.114739e-43
-5.920001e-02 -3.279038e-43
-5.910001e-02 -9.809089e-44
-5.900001e-02 1.737610e-43
-5.890001e-02 4.834480e-43
-5.880001e-02 8.239635e-43
-5.870001e-02 1.181295e-42
-5.860000e-02 1.541428e-42
-5.850001e-02 1.883345e-42
-5.840001e-02 2.187427e-42
-5.830001e-02 2.431253e-42
-5.820001e-02 2.591001e-42
-5.810001e-02 2.644250e-42
-5.800001e-02 2.572784e-42
-5.790001e-02 2.363991e-42
-5.780001e-02 2.008061e-42
-5.770001e-02 1.507797e-42
-5.760001e-02 8.674037e-43
-5.750000e-02 1.079000e-43
-5.740000e-02 -7.524973e-43
-5.730001e-02 -1.680157e-42
-5.720001e-02 -2.642849e-42
-5.710001e-02 -3.591528e-42
-5.700000e-02 -4.484155e-42
-5.690001e-02 -5.273086e-42
-5.680001e-02 -5.913480e-42
-5.670001e-02 -6.360494e-42
-5.660000e-02 -6.580498e-42
-5.650000e-02 -6.551070e-42
-5.640001e-02 -6.266607e-42
-5.630001e-02 -5.743922e-42
-5.620001e-02 -5.018050e-42
-5.610000e-02 -4.143640e-42
-5.600001e-02 -3.210375e-42
-5.590001e-02 -2.296728e-42
-5.580001e-02 -1.475567e-42
-5.570000e-02 -8.477856e-43
-5.560001e-02 -4.750402e-43
-5.550001e-02 -4.175869e-43
-5.540001e-02 -6.558077e-43
-5.530000e-02 -1.095815e-42
-5.520000e-02 -1.586270e-42
-5.510001e-02 -1.905766e-42
-5.500001e-02 -1.753024e-42
-5.490001e-02 -7.595038e-43
-5.480000e-02 1.495185e-42
-5.470001e-02 5.435637e-42
-5.460001e-02 1.151867e-41
-5.450001e-02 2.004277e-41
-5.440000e-02 3.128399e-41
-5.430000e-02 4.530118e-41
-5.420001e-02 6.187994e-41
-5.410001e-02 8.044154e-41
-5.400001e-02 1.001452e-40
-5.390000e-02 1.198068e-40
-5.380001e-02 1.378093e-40
-5.370001e-02 1.521348e-40
-5.360001e-02 1.604066e-40
-5.350000e-02 1.599708e-40
-5.340001e-02 1.479239e-40
-5.330001e-02 1.214449e-40
-5.320001e-02 7.762353e-41
-5.310000e-02 1.387846e-41
-5.300000e-02 -7.167502e-41
-5.290001e-02 -1.799884e-40
-5.280001e-02 -3.114007e-40
-5.270001e-02 -4.642250e-40
-5.260000e-02 -6.354412e-40
-5.250001e-02 -8.190968e-40
-5.240001e-02 -1.006557e-39
-5.230001e-02 -1.186150e-39
-5.220000e-02 -1.342649e-39
-5.210000e-02 -1.457530e-39
-5.200001e-02 -1.509378e-39
-5.190001e-02 -1.474561e-39
-5.180001e-02 -1.328124e-39
-5.170000e-02 -1.046406e-39
-5.160001e-02 -6.077614e-40
-5.150001e-02 4.751803e-42
-5.140001e-02 7.992754e-40
-5.130000e-02 1.772700e-39
-5.120001e-02 2.907030e-39
-5.110001e-02 4.166716e-39
-5.100001e-02 5.495057e-39
-5.090000e-02 6.819000e-39
-5.080000e-02 8.044105e-39
-5.070001e-02 9.058736e-39
-5.060001e-02 9.738404e-39
-5.050001e-02 9.951691e-39
-5.040000e-02 9.570528e-39
-5.030001e-02 8.478142e-39
-5.020001e-02 6.579794e-39
-5.010001e-02 3.812939e-39
-5.000000e-02 1.552022e-40
-4.990001e-02 -4.364334e-39
-4.980001e-02 -9.667209e-39
-4.970001e-02 -1.561369e-38
-4.960001e-02 -2.201484e-38
-4.950000e-02 -2.861626e-38
-4.940001e-02 -3.511865e-38
-4.930001e-02 -4.117612e-38
-4.920001e-02 -4.640038e-38
-4.910000e-02 -5.035586e-38
-4.900001e-02 -5.256939e-38
-4.890001e-02 -5.252091e-38
-4.880001e-02 -4.965221e-38
-4.870000e-02 -4.336926e-38
-4.860000e-02 -3.306516e-38
-4.850001e-02 -1.814578e-38
-4.840001e-02 1.907327e-39
-4.830001e-02 2.747455e-38
-4.820000e-02 5.867620e-38
-4.810001e-02 9.526531e-38
-4.800001e-02 1.364513e-37
-4.790001e-02 1.807862e-37
-4.780000e-02 2.259925e-37
-4.770001e-02 2.689202e-37
-4.760001e-02 3.055247e-37
-4.750001e-02 3.309471e-37
-4.740001e-02 3.397396e-37
-4.730000e-02 3.262124e-37
-4.720001e-02 2.849536e-37
-4.710001e-02 2.114557e-37
-4.700001e-02 1.028298e-37
-4.690000e-02 -4.141406e-38
-4.680001e-02 -2.187244e-37
-4.670001e-02 -4.229383e-37
-4.660001e-02 -6.440239e-37
-4.650000e-02 -8.682368e-37
-4.640000e-02 -1.078800e-36
-4.630001e-02 -1.256719e-36
-4.620001e-02 -1.382358e-36
-4.610001e-02 -1.437339e-36
-4.600000e-02 -1.406665e-36
-4.590001e-02 -1.280575e-36
-4.580001e-02 -1.056193e-36
-4.570001e-02 -7.386354e-37
-4.560000e-02 -3.409426e-37
-4.550001e-02 1.170105e-37
-4.540001e-02 6.108495e-37
-4.530001e-02 1.115131e-36
-4.520001e-02 1.607436e-36
-4.510000e-02 2.072617e-36
-4.500001e-02 2.506421e-36
-4.490001e-02 2.917632e-36
-4.480001e-02 3.328097e-36
-4.470000e-02 3.768686e-36
-4.460001e-02 4.272114e-36
-4.450001e-02 4.862413e-36
-4.440001e-02 5.540893e-36
-4.430000e-02 6.270652e-36
-4.420000e-02 6.962921e-36
-4.410001e-02 7.465812e-36
-4.400001e-02 7.561119e-36
-4.390001e-02 6.971409e-36
-4.380000e-02 5.380287e-36
-4.370001e-02 2.468760e-36
-4.360001e-02 -2.035230e-36
-4.350001e-02 -8.293484e-36
-4.340000e-02 -1.628796e-35
-4.330001e-02 -2.575341e-35
-4.320001e-02 -3.611953e-35
-4.310001e-02 -4.648184e-35
-4.300001e-02 -5.560872e-35
-4.290000e-02 -6.199675e-35
-4.280001e-02 -6.398684e-35
-4.270001e-02 -5.993558e-35
-4.260001e-02 -4.844144e-35
-4.250000e-02 -2.860685e-35
-4.240001e-02 -3.094225e-37
-4.230001e-02 3.555268e-35
-4.220001e-02 7.688614e-35
-4.210000e-02 1.203440e-34
-4.200000e-02 1.614245e-34
-4.190001e-02 1.947638e-34
-4.180001e-02 2.146352e-34
-4.170001e-02 2.156371e-34
-4.160000e-02 1.935333e-34
-4.150001e-02 1.461571e-34
-4.140001e-02 7.427268e-35
-4.130001e-02 -1.776372e-35
-4.120000e-02 -1.216743e-34
-4.110001e-02 -2.254263e-34
-4.100001e-02 -3.140280e-34
-4.090001e-02 -3.709880e-34
-4.080001e-02 -3.804474e-34
-4.070000e-02 -3.298508e-34
-4.060001e-02 -2.129087e-34
-4.050001e-02 -3.248999e-35
-4.040001e-02 1.970103e-34
-4.030000e-02 4.483788e-34
-4.020001e-02 6.818859e-34
-4.010001e-02 8.476531e-34
-4.000001e-02 8.903315e-34
-3.990000e-02 7.561596e-34
-3.980000e-02 4.020816e-34
-3.970001e-02 -1.938119e-34
-3.960001e-02 -1.021688e-33
-3.950001e-02 -2.030752e-33
-3.940000e-02 -3.123253e-33
-3.930001e-02 -4.153580e-33
-3.920001e-02 -4.934250e-33
-3.910001e-02 -5.250097e-33
-3.900000e-02 -4.881153e-33
-3.890001e-02 -3.633634e-33
-3.880001e-02 -1.377076e-33
-3.870001e-02 1.915881e-33
-3.860001e-02 6.131968e-33
-3.850000e-02 1.098816e-32
-3.840001e-02 1.601772e-32
-3.830001e-02 2.057823e-32
-3.820001e-02 2.388722e-32
-3.810000e-02 2.508872e-32
-3.800001e-02 2.335095e-32
-3.790001e-02 1.799074e-32
-3.780001e-02 8.615112e-33
-3.770000e-02 -4.734630e-33
-3.760000e-02 -2.145622e-32
-3.750001e-02 -4.029998e-32
-3.740001e-02 -5.934737e-32
-3.730001e-02 -7.607695e-32
-3.720000e-02 -8.753527e-32
-3.710001e-02 -9.061964e-32
-3.700001e-02 -8.246775e-32
-3.690001e-02 -6.093026e-32
-3.680000e-02 -2.508617e-32
-3.670001e-02 2.425988e-32
-3.660001e-02 8.417257e-32
-3.650001e-02 1.493582e-31
-3.640001e-02 2.122004e-31
-3.630000e-02 2.631330e-31
-3.620001e-02 2.913996e-31
-3.610001e-02 2.862108e-31
-3.600001e-02 2.382557e-31
-3.590000e-02 1.414651e-31
-3.580001e-02 -5.144716e-33
-3.570001e-02 -1.957801e-31
-3.560001e-02 -4.166129e-31
-3.550000e-02 -6.452628e-31
-3.540000e-02 -8.513162e-31
-3.530001e-02 -9.981240e-31
-3.520001e-02 -1.046014e-30
-3.510001e-02 -9.569057e-31
-3.500000e-02 -7.001157e-31
-3.490001e-02 -2.589044e-31
-3.480001e-02 3.628955e-31
-3.470001e-02 1.135067e-30
-3.460000e-02 1.997051e-30
-3.450001e-02 2.856940e-30
-3.440001e-02 3.594460e-30
-3.430001e-02 4.068731e-30
-3.420001e-02 4.131184e-30
-3.410000e-02 3.643455e-30
-3.400001e-02 2.499308e-30
-3.390001e-02 6.488544e-31
-3.380001e-02 -1.877524e-30
-3.370000e-02 -4.948835e-30
-3.360001e-02 -8.320541e-30
-3.350001e-02 -1.163296e-29
-3.340001e-02 -1.442461e-29
-3.330000e-02 -1.616316e-29
-3.320001e-02 -1.629509e-29
-3.310001e-02 -1.431307e-29
-3.300001e-02 -9.837259e-30
-3.290001e-02 -2.704000e-30
-3.280000e-02 6.947772e-30
-3.270001e-02 1.860443e-29
-3.260001e-02 3.133365e-29
-3.250001e-02 4.378260e-29
-3.240000e-02 5.423108e-29
-3.230001e-02 6.070867e-29
-3.220001e-02 6.117955e-29
-3.210001e-02 5.379059e-29
-3.200001e-02 3.716876e-29
-3.190000e-02 1.074363e-29
-3.180001e-02 -2.493995e-29
-3.170001e-02 -6.796269e-29
-3.160001e-02 -1.148746e-28
-3.150000e-02 -1.606921e-28
-3.140001e-02 -1.990944e-28
-3.130001e-02 -2.228509e-28
-3.120001e-02 -2.244939e-28
-3.110000e-02 -1.972184e-28
-3.100001e-02 -1.359626e-28
-3.090001e-02 -3.857999e-29
-3.080001e-02 9.302044e-29
-3.070001e-02 2.519217e-28
-3.060000e-02 4.256116e-28
-3.050001e-02 5.959430e-28
-3.040001e-02 7.398056e-28
-3.030001e-02 8.306326e-28
-3.020000e-02 8.407908e-28
-3.010001e-02 7.448098e-28
-3.000001e-02 5.232806e-28
-2.990001e-02 1.671252e-28
-2.980001e-02 -3.181982e-28
-2.970000e-02 -9.091061e-28
-2.960001e-02 -1.561547e-27
-2.950001e-02 -2.210568e-27
-2.940001e-02 -2.772391e-27
-2.930000e-02 -3.149480e-27
-2.920001e-02 -3.238803e-27
-2.910001e-02 -2.943209e-27
-2.900001e-02 -2.185371e-27
-2.890000e-02 -9.233013e-28
-2.880001e-02 8.340362e-28
-2.870001e-02 3.012948e-27
-2.860001e-02 5.465295e-27
-2.850001e-02 7.965233e-27
-2.840000e-02 1.021465e-26
-2.830001e-02 1.185914e-26
-2.820001e-02 1.251558e-26
-2.810001e-02 1.181122e-26
-2.800000e-02 9.432698e-27
-2.790001e-02 5.182042e-27
-2.780001e-02 -9.655796e-28
-2.770001e-02 -8.808627e-27
-2.760001e-02 -1.787845e-26
-2.750000e-02 -2.741952e-26
-2.740001e-02 -3.639908e-26
-2.730001e-02 -4.355336e-26
-2.720001e-02 -4.747521e-26
-2.710000e-02 -4.674418e-26
-2.700001e-02 -4.009556e-26
-2.690001e-02 -2.661872e-26
-2.680001e-02 -5.969269e-27
-2.670000e-02 2.142672e-26
-2.660001e-02 5.420328e-26
-2.650001e-02 8.995011e-26
-2.640001e-02 1.252042e-25
-2.630001e-02 1.555654e-25
-2.620000e-02 1.759574e-25
-2.610001e-02 1.810442e-25
-2.600001e-02 1.657949e-25
-2.590001e-02 1.261735e-25
-2.580000e-02 5.990426e-26
-2.570001e-02 -3.275451e-26
-2.560001e-02 -1.483201e-25
-2.550001e-02 -2.795822e-25
-2.540001e-02 -4.153987e-25
-2.530000e-02 -5.409005e-25
-2.520001e-02 -6.381936e-25
-2.510001e-02 -6.876163e-25
-2.500001e-02 -6.695590e-25
-2.490000e-02 -5.667905e-25
-2.480001e-02 -3.671600e-25
-2.470001e-02 -6.646200e-26
-2.460001e-02 3.288218e-25
-2.450000e-02 7.992613e-25
-2.440001e-02 1.311092e-24
-2.430001e-02 1.816113e-24
-2.420001e-02 2.253227e-24
-2.410001e-02 2.551924e-24
-2.400000e-02 2.637815e-24
-2.390001e-02 2.440170e-24
-2.380001e-02 1.901138e-24
-2.370001e-02 9.860523e-25
-2.360000e-02 -3.060564e-25
-2.350001e-02 -1.932898e-24
-2.340001e-02 -3.801656e-24
-2.330001e-02 -5.765499e-24
-2.320001e-02 -7.625286e-24
-2.310000e-02 -9.137739e-24
-2.300001e-02 -1.003090e-23
-2.290001e-02 -1.002713e-23
-2.280001e-02 -8.873174e-24
-2.270000e-02 -6.375698e-24
-2.260001e-02 -2.439946e-24
-2.250001e-02 2.892119e-24
-2.240001e-02 9.408546e-24
-2.230000e-02 1.670413e-23
-2.220001e-02 2.417245e-23
-2.210001e-02 3.101834e-23
-2.200001e-02 3.629494e-23
-2.190001e-02 3.896788e-23
-2.180000e-02 3.800692e-23
-2.170001e-02 3.250224e-23
-2.160001e-02 2.179917e-23
-2.150001e-02 5.641501e-24
-2.140000e-02 -1.569024e-23
-2.130001e-02 -4.126223e-23
-2.120001e-02 -6.941114e-23
-2.110001e-02 -9.772779e-23
-2.100001e-02 -1.231185e-22
-2.090000e-02 -1.419586e-22
-2.080001e-02 -1.503458e-22
-2.070001e-02 -1.444533e-22
-2.060001e-02 -1.209705e-22
-2.050000e-02 -7.760629e-23
-2.040001e-02 -1.361848e-23
-2.030001e-02 6.968273e-23
-2.020001e-02 1.685180e-22
-2.010000e-02 2.763777e-22
-2.000001e-02 3.839857e-22
-1.990001e-02 4.795536e-22
-1.980001e-02 5.493743e-22
-1.970001e-02 5.787829e-22
-1.960000e-02 5.534788e-22
-1.950001e-02 4.611660e-22
-1.940001e-02 2.934167e-22
-1.930001e-02 4.762365e-23
-1.920000e-02 -2.711481e-22
-1.910001e-02 -6.486310e-22
-1.900001e-02 -1.060396e-21
-1.890001e-02 -1.471720e-21
-1.880001e-02 -1.838504e-21
-1.870000e-02 -2.109443e-21
-1.860001e-02 -2.229524e-21
-1.850001e-02 -2.144861e-21
-1.840001e-02 -1.808686e-21
-1.830000e-02 -1.188201e-21
-1.820001e-02 -2.717661e-22
-1.810001e-02 9.242065e-22
-1.800001e-02 2.349476e-21
-1.790000e-02 3.916201e-21
-1.780001e-02 5.498085e-21
-1.770001e-02 6.933309e-21
-1.760001e-02 8.031934e-21
-1.750001e-02 8.588169e-21
-1.740000e-02 8.397527e-21
-1.730001e-02 7.278372e-21
-1.720001e-02 5.096775e-21
-1.710001e-02 1.793000e-21
-1.700000e-02 -2.592675e-21
-1.690001e-02 -7.897636e-21
-1.680001e-02 -1.382127e-20
-1.670001e-02 -1.991935e-20
-1.660001e-02 -2.561156e-20
-1.650001e-02 -3.020491e-20
-1.640001e-02 -3.293475e-20
-1.630001e-02 -3.302368e-20
-1.620001e-02 -2.975722e-20
-1.610000e-02 -2.257279e-20
-1.600001e-02 -1.115652e-20
-1.590001e-02 4.459842e-21
-1.580001e-02 2.381160e-20
-1.570000e-02 4.593460e-20
-1.560001e-02 6.933156e-20
-1.550001e-02 9.198300e-20
-1.540001e-02 1.114131e-19
-1.530001e-02 1.248183e-19
-1.520000e-02 1.292614e-19
-1.510001e-02 1.219289e-19
-1.500001e-02 1.004434e-19
-1.490001e-02 6.321162e-20
-1.480000e-02 9.786041e-21
-1.470001e-02 -5.879438e-20
-1.460001e-02 -1.397219e-19
-1.450001e-02 -2.282392e-19
-1.440001e-02 -3.176029e-19
-1.430001e-02 -3.992324e-19
-1.420001e-02 -4.630762e-19
-1.410001e-02 -4.982140e-19
-1.400001e-02 -4.936985e-19
-1.390000e-02 -4.396122e-19
-1.380001e-02 -3.282954e-19
-1.370001e-02 -1.556666e-19
-1.360001e-02 7.746639e-20
-1.350001e-02 3.642339e-19
-1.340001e-02 6.908169e-19
-1.330001e-02 1.036002e-18
-1.320001e-02 1.371329e-18
-1.310001e-02 1.661975e-18
-1.300000e-02 1.868457e-18
-1.290001e-02 1.949219e-18
-1.280001e-02 1.864053e-18
-1.270001e-02 1.578270e-18
-1.260000e-02 1.067377e-18
-1.250001e-02 3.219803e-19
-1.240001e-02 -6.475128e-19
-1.230001e-02 -1.806876e-18
-1.220001e-02 -3.095273e-18
-1.210001e-02 -4.424266e-18
-1.200001e-02 -5.679143e-18
-1.190001e-02 -6.723044e-18
-1.180001e-02 -7.404154e-18
-1.170000e-02 -7.566086e-18
-1.160001e-02 -7.061257e-18
-1.150001e-02 -5.766770e-18
-1.140001e-02 -3.601950e-18
-1.130001e-02 -5.463272e-19
-1.120001e-02 3.343459e-18
-1.110001e-02 7.919662e-18
-1.100001e-02 1.293431e-17
-1.090001e-02 1.803699e-17
-1.080000e-02 2.278142e-17
-1.070001e-02 2.664234e-17
-1.060001e-02 2.904373e-17
-1.050001e-02 2.939849e-17
-1.040000e-02 2.715885e-17
-1.030001e-02 2.187562e-17
-1.020001e-02 1.326287e-17
-1.010001e-02 1.263933e-18