-1.200000e-01 0.000000e+00
-1.199000e-01 0.000000e+00
-1.198000e-01 0.000000e+00
-1.197000e-01 0.000000e+00
-1.196000e-01 0.000000e+00
-1.195000e-01 0.000000e+00
-1.194000e-01 0.000000e+00
-1.193000e-01 0.000000e+00
-1.192000e-01 0.000000e+00
-1.191000e-01 0.000000e+00
-1.190000e-01 0.000000e+00
-1.189000e-01 0.000000e+00
-1.188000e-01 0.000000e+00
-1.187000e-01 0.000000e+00
-1.186000e-01 0.000000e+00
-1.185000e-01 0.000000e+00
-1.184000e-01 0.000000e+00
-1.183000e-01 0.000000e+00
-1.182000e-01 0.000000e+00
-1.181000e-01 0.000000e+00
-1.180000e-01 0.000000e+00
-1.179000e-01 0.000000e+00
-1.178000e-01 0.000000e+00
-1.177000e-01 0.000000e+00
-1.176000e-01 0.000000e+00
-1.175000e-01 0.000000e+00
-1.174000e-01 0.000000e+00
-1.173000e-01 0.000000e+00
-1.172000e-01 0.000000e+00
-1.171000e-01 0.000000e+00
-1.170000e-01 0.000000e+00
-1.169000e-01 0.000000e+00
-1.168000e-01 0.000000e+00
-1.167000e-01 0.000000e+00
-1.166000e-01 0.000000e+00
-1.165000e-01 0.000000e+00
-1.164000e-01 0.000000e+00
-1.163000e-01 0.000000e+00
-1.162000e-01 0.000000e+00
-1.161000e-01 0.000000e+00
-1.160000e-01 0.000000e+00
-1.159000e-01 0.000000e+00
-1.158000e-01 0.000000e+00
-1.157000e-01 0.000000e+00
-1.156000e-01 0.000000e+00
-1.155000e-01 0.000000e+00
-1.154000e-01 0.000000e+00
-1.153000e-01 0.000000e+00
-1.152000e-01 0.000000e+00
-1.151000e-01 0.000000e+00
-1.150000e-01 0.000000e+00
-1.149000e-01 0.000000e+00
-1.148000e-01 0.000000e+00
-1.147000e-01 0.000000e+00
-1.146000e-01 0.000000e+00
-1.145000e-01 0.000000e+00
-1.144000e-01 0.000000e+00
-1.143000e-01 0.000000e+00
-1.142000e-01 0.000000e+00
-1.141000e-01 0.000000e+00
-1.140000e-01 0.000000e+00
-1.139000e-01 0.000000e+00
-1.138000e-01 0.000000e+00
-1.137000e-01 0.000000e+00
-1.136000e-01 0.000000e+00
-1.135000e-01 0.000000e+00
-1.134000e-01 0.000000e+00
-1.133000e-01 0.000000e+00
-1.132000e-01 0.000000e+00
-1.131000e-01 0.000000e+00
-1.130000e-01 0.000000e+00
-1.129000e-01 0.000000e+00
-1.128000e-01 0.000000e+00
-1.127000e-01 0.000000e+00
-1.126000e-01 0.000000e+00
-1.125000e-01 0.000000e+00
-1.124000e-01 0.000000e+00
-1.123000e-01 0.000000e+00
-1.122000e-01 0.000000e+00
-1.121000e-01 0.000000e+00
-1.120000e-01 0.000000e+00
-1.119000e-01 0.000000e+00
-1.118000e-01 0.000000e+00
-1.117000e-01 0.000000e+00
-1.116000e-01 0.000000e+00
-1.115000e-01 0.000000e+00
-1.114000e-01 0.000000e+00
-1.113000e-01 0.000000e+00
-1.112000e-01 0.000000e+00
-1.111000e-01 0.000000e+00
-1.110000e-01 0.000000e+00
-1.109000e-01 0.000000e+00
-1.108000e-01 0.000000e+00
-1.107000e-01 0.000000e+00
-1.106000e-01 0.000000e+00
-1.105000e-01 0.000000e+00
-1.104000e-01 0.000000e+00
-1.103000e-01 0.000000e+00
-1.102000e-01 0.000000e+00
-1.101000e-01 0.000000e+00
-1.100000e-01 0.000000e+00
-1.099000e-01 0.000000e+00
-1.098000e-01 0.000000e+00
-1.097000e-01 0.000000e+00
-1.096000e-01 0.000000e+00
-1.095000e-01 0.000000e+00
-1.094000e-01 0.000000e+00
-1.093000e-01 0.000000e+00
-1.092000e-01 0.000000e+00
-1.091000e-01 0.000000e+00
-1.090000e-01 0.000000e+00
-1.089000e-01 0.000000e+00
-1.088000e-01 0.000000e+00
-1.087000e-01 0.000000e+00
-1.086000e-01 0.000000e+00
-1.085000e-01 0.000000e+00
-1.084000e-01 0.000000e+00
-1.083000e-01 0.000000e+00
-1.082000e-01 0.000000e+00
-1.081000e-01 0.000000e+00
-1.080000e-01 0.000000e+00
-1.079000e-01 0.000000e+00
-1.078000e-01 0.000000e+00
-1.077000e-01 0.000000e+00
-1.076000e-01 0.000000e+00
-1.075000e-01 0.000000e+00
-1.074000e-01 0.000000e+00
-1.073000e-01 0.000000e+00
-1.072000e-01 0.000000e+00
-1.071000e-01 0.000000e+00
-1.070000e-01 0.000000e+00
-1.069000e-01 0.000000e+00
-1.068000e-01 0.000000e+00
-1.067000e-01 0.000000e+00
-1.066000e-01 0.000000e+00
-1.065000e-01 0.000000e+00
-1.064000e-01 0.000000e+00
-1.063000e-01 0.000000e+00
-1.062000e-01 0.000000e+00
-1.061000e-01 0.000000e+00
-1.060000e-01 0.000000e+00
-1.059000e-01 0.000000e+00
-1.058000e-01 0.000000e+00
-1.057000e-01 0.000000e+00
-1.056000e-01 0.000000e+00
-1.055000e-01 0.000000e+00
-1.054000e-01 0.000000e+00
-1.053000e-01 0.000000e+00
-1.052000e-01 0.000000e+00
-1.051000e-01 0.000000e+00
-1.050000e-01 0.000000e+00
-1.049000e-01 0.000000e+00
-1.048000e-01 0.000000e+00
-1.047000e-01 0.000000e+00
-1.046000e-01 0.000000e+00
-1.045000e-01 0.000000e+00
-1.044000e-01 0.000000e+00
-1.043000e-01 0.000000e+00
-1.042000e-01 0.000000e+00
-1.041000e-01 0.000000e+00
-1.040000e-01 0.000000e+00
-1.039000e-01 0.000000e+00
-1.038000e-01 0.000000e+00
-1.037000e-01 0.000000e+00
-1.036000e-01 0.000000e+00
-1.035000e-01 0.000000e+00
-1.034000e-01 0.000000e+00
-1.033000e-01 0.000000e+00
-1.032000e-01 0.000000e+00
-1.031000e-01 0.000000e+00
-1.030000e-01 0.000000e+00
-1.029000e-01 0.000000e+00
-1.028000e-01 0.000000e+00
-1.027000e-01 0.000000e+00
-1.026000e-01 0.000000e+00
-1.025000e-01 0.000000e+00
-1.024000e-01 0.000000e+00
-1.023000e-01 0.000000e+00
-1.022000e-01 0.000000e+00
-1.021000e-01 0.000000e+00
-1.020000e-01 0.000000e+00
-1.019000e-01 0.000000e+00
-1.018000e-01 0.000000e+00
-1.017000e-01 0.000000e+00
-1.016000e-01 0.000000e+00
-1.015000e-01 0.000000e+00
-1.014000e-01 0.000000e+00
-1.013000e-01 0.000000e+00
-1.012000e-01 0.000000e+00
-1.011000e-01 0.000000e+00
-1.010000e-01 0.000000e+00
-1.009000e-01 0.000000e+00
-1.008000e-01 0.000000e+00
-1.007000e-01 0.000000e+00
-1.006000e-01 0.000000e+00
-1.005000e-01 0.000000e+00
-1.004000e-01 0.000000e+00
-1.003000e-01 0.000000e+00
-1.002000e-01 0.000000e+00
-1.001000e-01 0.000000e+00
-1.000000e-01 0.000000e+00
-9.990001e-02 0.000000e+00
-9.980001e-02 0.000000e+00
-9.970000e-02 0.000000e+00
-9.960000e-02 0.000000e+00
-9.950001e-02 0.000000e+00
-9.940001e-02 0.000000e+00
-9.930000e-02 0.000000e+00
-9.920000e-02 0.000000e+00
-9.910001e-02 0.000000e+00
-9.900001e-02 0.000000e+00
-9.890001e-02 0.000000e+00
-9.880000e-02 0.000000e+00
-9.870000e-02 0.000000e+00
-9.860001e-02 0.000000e+00
-9.850001e-02 0.000000e+00
-9.840000e-02 0.000000e+00
-9.830001e-02 0.000000e+00
-9.820001e-02 0.000000e+00
-9.810001e-02 0.000000e+00
-9.800000e-02 0.000000e+00
-9.790000e-02 0.000000e+00
-9.780000e-02 0.000000e+00
-9.770001e-02 0.000000e+00
-9.760001e-02 0.000000e+00
-9.750000e-02 0.000000e+00
-9.740001e-02 0.000000e+00
-9.730001e-02 0.000000e+00
-9.720001e-02 0.000000e+00
-9.710000e-02 0.000000e+00
-9.700000e-02 0.000000e+00
-9.690000e-02 0.000000e+00
-9.680001e-02 0.000000e+00
-9.670001e-02 0.000000e+00
-9.660000e-02 0.000000e+00
-9.650001e-02 0.000000e+00
-9.640001e-02 0.000000e+00
-9.630001e-02 0.000000e+00
-9.620000e-02 0.000000e+00
-9.610000e-02 0.000000e+00
-9.600000e-02 0.000000e+00
-9.590001e-02 0.000000e+00
-9.580000e-02 0.000000e+00
-9.570000e-02 0.000000e+00
-9.560001e-02 0.000000e+00
-9.550001e-02 0.000000e+00
-9.540001e-02 0.000000e+00
-9.530000e-02 0.000000e+00
-9.520000e-02 0.000000e+00
-9.510001e-02 0.000000e+00
-9.500001e-02 0.000000e+00
-9.490000e-02 0.000000e+00
-9.480000e-02 0.000000e+00
-9.470001e-02 0.000000e+00
-9.460001e-02 0.000000e+00
-9.450001e-02 0.000000e+00
-9.440000e-02 0.000000e+00
-9.430000e-02 0.000000e+00
-9.420001e-02 0.000000e+00
-9.410001e-02 0.000000e+00
-9.400000e-02 0.000000e+00
-9.390001e-02 0.000000e+00
-9.380001e-02 0.000000e+00
-9.370001e-02 0.000000e+00
-9.360000e-02 0.000000e+00
-9.350000e-02 0.000000e+00
-9.340000e-02 0.000000e+00
-9.330001e-02 0.000000e+00
-9.320001e-02 0.000000e+00
-9.310000e-02 0.000000e+00
-9.300001e-02 0.000000e+00
-9.290001e-02 0.000000e+00
-9.280001e-02 0.000000e+00
-9.270000e-02 0.000000e+00
-9.260000e-02 0.000000e+00
-9.250000e-02 0.000000e+00
-9.240001e-02 0.000000e+00
-9.230001e-02 0.000000e+00
-9.220000e-02 0.000000e+00
-9.210001e-02 0.000000e+00
-9.200001e-02 0.000000e+00
-9.190001e-02 0.000000e+00
-9.180000e-02 0.000000e+00
-9.170000e-02 0.000000e+00
-9.160000e-02 0.000000e+00
-9.150001e-02 0.000000e+00
-9.140000e-02 0.000000e+00
-9.130000e-02 0.000000e+00
-9.120001e-02 0.000000e+00
-9.110001e-02 0.000000e+00
-9.100001e-02 0.000000e+00
-9.090000e-02 0.000000e+00
-9.080000e-02 0.000000e+00
-9.070001e-02 0.000000e+00
-9.060001e-02 0.000000e+00
-9.050000e-02 0.000000e+00
-9.040000e-02 0.000000e+00
-9.030001e-02 0.000000e+00
-9.020001e-02 0.000000e+00
-9.010001e-02 0.000000e+00
-9.000000e-02 0.000000e+00
-8.990000e-02 0.000000e+00
-8.980001e-02 0.000000e+00
-8.970001e-02 0.000000e+00
-8.960000e-02 0.000000e+00
-8.950001e-02 0.000000e+00
-8.940001e-02 0.000000e+00
-8.930001e-02 0.000000e+00
-8.920000e-02 0.000000e+00
-8.910000e-02 0.000000e+00
-8.900000e-02 0.000000e+00
-8.890001e-02 0.000000e+00
-8.880001e-02 0.000000e+00
-8.870000e-02 0.000000e+00
-8.860001e-02 0.000000e+00
-8.850001e-02 0.000000e+00
-8.840001e-02 0.000000e+00
-8.830000e-02 0.000000e+00
-8.820000e-02 0.000000e+00
-8.810000e-02 0.000000e+00
-8.800001e-02 0.000000e+00
-8.790001e-02 0.000000e+00
-8.780001e-02 0.000000e+00
-8.770001e-02 0.000000e+00
-8.760001e-02 0.000000e+00
-8.750001e-02 0.000000e+00
-8.740000e-02 0.000000e+00
-8.730000e-02 0.000000e+00
-8.720000e-02 0.000000e+00
-8.710001e-02 0.000000e+00
-8.700000e-02 0.000000e+00
-8.690001e-02 0.000000e+00
-8.680001e-02 0.000000e+00
-8.670001e-02 0.000000e+00
-8.660001e-02 0.000000e+00
-8.650000e-02 0.000000e+00
-8.640000e-02 0.000000e+00
-8.630000e-02 0.000000e+00
-8.620001e-02 0.000000e+00
-8.610000e-02 0.000000e+00
-8.600001e-02 0.000000e+00
-8.590001e-02 0.000000e+00
-8.580001e-02 0.000000e+00
-8.570001e-02 0.000000e+00
-8.560000e-02 0.000000e+00
-8.550000e-02 0.000000e+00
-8.540000e-02 0.000000e+00
-8.530001e-02 0.000000e+00
-8.520000e-02 0.000000e+00
-8.510001e-02 0.000000e+00
-8.500001e-02 0.000000e+00
-8.490001e-02 0.000000e+00
-8.480000e-02 0.000000e+00
-8.470000e-02 0.000000e+00
-8.460000e-02 0.000000e+00
-8.450001e-02 0.000000e+00
-8.440001e-02 0.000000e+00
-8.430000e-02 0.000000e+00
-8.420001e-02 0.000000e+00
-8.410001e-02 0.000000e+00
-8.400001e-02 0.000000e+00
-8.390000e-02 0.000000e+00
-8.380000e-02 0.000000e+00
-8.370000e-02 0.000000e+00
-8.360001e-02 0.000000e+00
-8.350001e-02 0.000000e+00
-8.340001e-02 0.000000e+00
-8.330001e-02 0.000000e+00
-8.320001e-02 0.000000e+00
-8.310001e-02 0.000000e+00
-8.300000e-02 0.000000e+00
-8.290000e-02 0.000000e+00
-8.280000e-02 0.000000e+00
-8.270001e-02 0.000000e+00
-8.260000e-02 0.000000e+00
-8.250001e-02 0.000000e+00
-8.240001e-02 0.000000e+00
-8.230001e-02 0.000000e+00
-8.220001e-02 0.000000e+00
-8.210000e-02 0.000000e+00
-8.200000e-02 0.000000e+00
-8.190000e-02 0.000000e+00
-8.180001e-02 0.000000e+00
-8.170000e-02 0.000000e+00
-8.160001e-02 0.000000e+00
-8.150001e-02 0.000000e+00
-8.140001e-02 0.000000e+00
-8.130001e-02 0.000000e+00
-8.120000e-02 0.000000e+00
-8.110000e-02 0.000000e+00
-8.100000e-02 0.000000e+00
-8.090001e-02 0.000000e+00
-8.080000e-02 0.000000e+00
-8.070001e-02 0.000000e+00
-8.060001e-02 0.000000e+00
-8.050001e-02 0.000000e+00
-8.040000e-02 0.000000e+00
-8.030000e-02 0.000000e+00
-8.020000e-02 0.000000e+00
-8.010001e-02 0.000000e+00
-8.000001e-02 0.000000e+00
-7.990000e-02 0.000000e+00
-7.980001e-02 0.000000e+00
-7.970001e-02 0.000000e+00
-7.960001e-02 0.000000e+00
-7.950000e-02 0.000000e+00
-7.940000e-02 0.000000e+00
-7.930000e-02 0.000000e+00
-7.920001e-02 0.000000e+00
-7.910001e-02 0.000000e+00
-7.900001e-02 0.000000e+00
-7.890001e-02 0.000000e+00
-7.880001e-02 0.000000e+00
-7.870001e-02 0.000000e+00
-7.860000e-02 0.000000e+00
-7.850000e-02 0.000000e+00
-7.840000e-02 0.000000e+00
-7.830001e-02 0.000000e+00
-7.820000e-02 0.000000e+00
-7.810001e-02 0.000000e+00
-7.800001e-02 0.000000e+00
-7.790001e-02 0.000000e+00
-7.780001e-02 0.000000e+00
-7.770000e-02 0.000000e+00
-7.760000e-02 0.000000e+00
-7.750000e-02 0.000000e+00
-7.740001e-02 0.000000e+00
-7.730000e-02 0.000000e+00
-7.720001e-02 0.000000e+00
-7.710001e-02 0.000000e+00
-7.700001e-02 0.000000e+00
-7.690001e-02 0.000000e+00
-7.680000e-02 0.000000e+00
-7.670000e-02 0.000000e+00
-7.660001e-02 0.000000e+00
-7.650001e-02 0.000000e+00
-7.640000e-02 0.000000e+00
-7.630001e-02 0.000000e+00
-7.620001e-02 0.000000e+00
-7.610001e-02 0.000000e+00
-7.600001e-02 0.000000e+00
-7.590000e-02 0.000000e+00
-7.580000e-02 0.000000e+00
-7.570001e-02 0.000000e+00
-7.560001e-02 0.000000e+00
-7.550001e-02 0.000000e+00
-7.540001e-02 0.000000e+00
-7.530001e-02 0.000000e+00
-7.520001e-02 0.000000e+00
-7.510000e-02 -2.802597e-45
-7.500000e-02 -2.802597e-45
-7.490000e-02 -2.802597e-45
-7.480001e-02 -2.802597e-45
-7.470001e-02 0.000000e+00
-7.460001e-02 0.000000e+00
-7.450001e-02 2.802597e-45
-7.440001e-02 2.802597e-45
-7.430001e-02 5.605194e-45
-7.420000e-02 8.407791e-45
-7.410000e-02 1.121039e-44
-7.400000e-02 1.401298e-44
-7.390001e-02 1.681558e-44
-7.380001e-02 1.681558e-44
-7.370001e-02 1.961818e-44
-7.360001e-02 1.681558e-44
-7.350001e-02 1.121039e-44
-7.340001e-02 2.802597e-45
-7.330000e-02 -9.809089e-45
-7.320000e-02 -2.522337e-44
-7.310000e-02 -4.344025e-44
-7.300001e-02 -6.305843e-44
-7.290000e-02 -8.547921e-44
-7.280001e-02 -1.064987e-43
-7.270001e-02 -1.247156e-43
-7.260001e-02 -1.331234e-43
-7.250001e-02 -1.359260e-43
-7.240000e-02 -1.303208e-43
-7.230000e-02 -1.135052e-43
-7.220001e-02 -8.267661e-44
-7.210001e-02 -3.363116e-44
-7.200000e-02 3.222986e-44
-7.190001e-02 1.163078e-43
-7.180001e-02 2.158000e-43
-7.170001e-02 3.307064e-43
-7.160001e-02 4.568233e-43
-7.150000e-02 5.857428e-43
-7.140000e-02 7.118596e-43
-7.130001e-02 8.267661e-43
-7.120001e-02 9.150479e-43
-7.110001e-02 9.654946e-43
-7.100001e-02 9.654946e-43
-7.090001e-02 8.982323e-43
-7.080001e-02 7.538986e-43
-7.070000e-02 5.128752e-43
-7.060000e-02 1.681558e-43
-7.050000e-02 -2.844636e-43
-7.040001e-02 -8.491869e-43
-7.030001e-02 -1.513402e-42
-7.020001e-02 -2.264498e-42
-7.010001e-02 -3.077251e-42
-7.000001e-02 -3.915228e-42
-6.990001e-02 -4.727981e-42
-6.980000e-02 -5.456656e-42
-6.970000e-02 -6.029787e-42
-6.960000e-02 -6.366099e-42
-6.950001e-02 -6.378711e-42
-6.940001e-02 -5.980742e-42
-6.930001e-02 -5.082510e-42
-6.920001e-02 -3.609745e-42
-6.910001e-02 -1.497988e-42
-6.900001e-02 1.287793e-42
-6.890000e-02 4.744797e-42
-6.880000e-02 8.839391e-42
-6.870000e-02 1.347769e-41
-6.860001e-02 1.850555e-41
-6.850000e-02 2.370436e-41
-6.840001e-02 2.878968e-41
-6.830001e-02 3.340135e-41
-6.820001e-02 3.712180e-41
-6.810001e-02 3.947598e-41
-6.800000e-02 3.995102e-41
-6.790000e-02 3.801863e-41
-6.780001e-02 3.316453e-41
-6.770001e-02 2.492770e-41
-6.760000e-02 1.293398e-41
-6.750001e-02 -3.043620e-42
-6.740001e-02 -2.303875e-41
-6.730001e-02 -4.684961e-41
-6.720001e-02 -7.397034e-41
-6.710000e-02 -1.035616e-40
-6.700000e-02 -1.344111e-40
-6.690001e-02 -1.649174e-40
-6.680001e-02 -1.930821e-40
-6.670001e-02 -2.165455e-40
-6.660001e-02 -2.326352e-40
-6.650001e-02 -2.384506e-40
-6.640001e-02 -2.309984e-40
-6.630000e-02 -2.073375e-40
-6.620000e-02 -1.647927e-40
-6.610000e-02 -1.011794e-40
-6.600001e-02 -1.505835e-41
-6.590001e-02 9.397668e-41
-6.580001e-02 2.250233e-40
-6.570001e-02 3.755970e-40
-6.560001e-02 5.413861e-40
-6.550001e-02 7.160663e-40
-6.540000e-02 8.911824e-40
-6.530000e-02 1.056149e-39
-6.520000e-02 1.198358e-39
-6.510001e-02 1.303472e-39
-6.500001e-02 1.355843e-39
-6.490001e-02 1.339176e-39
-6.480001e-02 1.237338e-39
-6.470001e-02 1.035403e-39
-6.460001e-02 7.208363e-40
-6.450000e-02 2.848433e-40
-6.440000e-02 -2.761805e-40
-6.430000e-02 -9.591734e-40
-6.420001e-02 -1.752973e-39
-6.410000e-02 -2.637028e-39
-6.400001e-02 -3.580374e-39
-6.390001e-02 -4.540981e-39
-6.380001e-02 -5.465606e-39
-6.370001e-02 -6.290320e-39
-6.360000e-02 -6.941747e-39
-6.350000e-02 -7.339218e-39
-6.340001e-02 -7.397844e-39
-6.330001e-02 -7.032573e-39
-6.320000e-02 -6.163225e-39
-6.310001e-02 -4.720418e-39
-6.300001e-02 -2.652253e-39
-6.290001e-02 6.847725e-41
-6.280001e-02 3.436851e-39
-6.270000e-02 7.408539e-39
-6.260000e-02 1.189318e-38
-6.250001e-02 1.674890e-38
-6.240001e-02 2.177866e-38
-6.230001e-02 2.672892e-38
-6.220001e-02 3.129144e-38
-6.210000e-02 3.510861e-38
-6.200001e-02 3.778298e-38
-6.190000e-02 3.889130e-38
-6.180001e-02 3.800333e-38
-6.170001e-02 3.470533e-38
-6.160001e-02 2.862800e-38
-6.150001e-02 1.947823e-38
-6.140001e-02 7.073610e-39
-6.130001e-02 -8.621626e-39
-6.120001e-02 -2.746102e-38
-6.110001e-02 -4.908280e-38
-6.100000e-02 -7.288188e-38
-6.090001e-02 -9.798949e-38
-6.080000e-02 -1.232636e-37
-6.070001e-02 -1.472931e-37
-6.060001e-02 -1.684179e-37
-6.050001e-02 -1.847686e-37
-6.040001e-02 -1.943268e-37
-6.030001e-02 -1.950074e-37
-6.020001e-02 -1.847629e-37
-6.010001e-02 -1.617092e-37
-6.000001e-02 -1.242696e-37
-5.990001e-02 -7.133329e-38
-5.980001e-02 -2.422299e-39
-5.970000e-02 8.214113e-38
-5.960001e-02 1.810755e-37
-5.950001e-02 2.920008e-37
-5.940001e-02 4.113317e-37
-5.930001e-02 5.342145e-37
-5.920001e-02 6.545239e-37
-5.910001e-02 7.649297e-37
-5.900001e-02 8.570472e-37
-5.890001e-02 9.216796e-37
-5.880001e-02 9.491581e-37
-5.870001e-02 9.297831e-37
-5.860000e-02 8.543628e-37
-5.850001e-02 7.148382e-37
-5.840001e-02 5.049796e-37
-5.830001e-02 2.211306e-37
-5.820001e-02 -1.370339e-37
-5.810001e-02 -5.657723e-37
-5.800001e-02 -1.056613e-36
-5.790001e-02 -1.595811e-36
-5.780001e-02 -2.163989e-36
-5.770001e-02 -2.736005e-36
-5.760001e-02 -3.281129e-36
-5.750000e-02 -3.763548e-36
-5.740000e-02 -4.143277e-36
-5.730001e-02 -4.377483e-36
-5.720001e-02 -4.422253e-36
-5.710001e-02 -4.234778e-36
-5.700000e-02 -3.775958e-36
-5.690001e-02 -3.013320e-36
-5.680001e-02 -1.924201e-36
-5.670001e-02 -4.990424e-37
-5.660000e-02 1.255346e-36
-5.650000e-02 3.312750e-36
-5.640001e-02 5.624938e-36
-5.630001e-02 8.119732e-36
-5.620001e-02 1.069998e-35
-5.610000e-02 1.324367e-35
-5.600001e-02 1.560547e-35
-5.590001e-02 1.761979e-35
-5.580001e-02 1.910564e-35
-5.570000e-02 1.987328e-35
-5.560001e-02 1.973269e-35
-5.550001e-02 1.850383e-35
-5.540001e-02 1.602842e-35
-5.530000e-02 1.218290e-35
-5.520000e-02 6.892162e-36
-5.510001e-02 1.434701e-37
-5.500001e-02 -8.000249e-36
-5.490001e-02 -1.738847e-35
-5.480000e-02 -2.777347e-35
-5.470001e-02 -3.880403e-35
-5.460001e-02 -5.002348e-35
-5.450001e-02 -6.087293e-35
-5.440000e-02 -7.070069e-35
-5.430000e-02 -7.877858e-35
-5.420001e-02 -8.432543e-35
-5.410001e-02 -8.653828e-35
-5.400001e-02 -8.463066e-35
-5.390000e-02 -7.787784e-35
-5.380001e-02 -6.566747e-35
-5.370001e-02 -4.755433e-35
-5.360001e-02 -2.331694e-35
-5.350000e-02 6.986658e-36
-5.340001e-02 4.296702e-35
-5.330001e-02 8.385881e-35
-5.320001e-02 1.284876e-34
-5.310000e-02 1.752518e-34
-5.300000e-02 2.221236e-34
-5.290001e-02 2.666728e-34
-5.280001e-02 3.061162e-34
-5.270001e-02 3.373953e-34
-5.260000e-02 3.572833e-34
-5.250001e-02 3.625215e-34
-5.240001e-02 3.499844e-34
-5.230001e-02 3.168677e-34
-5.220000e-02 2.608973e-34
-5.210000e-02 1.805494e-34
-5.200001e-02 7.527386e-35
-5.190001e-02 -5.429163e-35
-5.180001e-02 -2.061275e-34
-5.170000e-02 -3.766741e-34
-5.160001e-02 -5.607243e-34
-5.150001e-02 -7.513800e-34
-5.140001e-02 -9.400900e-34
-5.130000e-02 -1.116779e-33
-5.120001e-02 -1.270083e-33
-5.110001e-02 -1.387689e-33
-5.100001e-02 -1.456798e-33
-5.090000e-02 -1.464687e-33
-5.080000e-02 -1.399382e-33
-5.070001e-02 -1.250413e-33
-5.060001e-02 -1.009632e-33
-5.050001e-02 -6.720651e-34
-5.040000e-02 -2.367527e-34
-5.030001e-02 2.924509e-34
-5.020001e-02 9.061860e-34
-5.010001e-02 1.589048e-33
-5.000000e-02 2.319261e-33
-4.990001e-02 3.068609e-33
-4.980001e-02 3.802697e-33
-4.970001e-02 4.481568e-33
-4.960001e-02 5.060709e-33
-4.950000e-02 5.492488e-33
-4.940001e-02 5.728000e-33
-4.930001e-02 5.719313e-33
-4.920001e-02 5.422077e-33
-4.910000e-02 4.798411e-33
-4.900001e-02 3.819997e-33
-4.890001e-02 2.471235e-33
-4.880001e-02 7.523234e-34
-4.870000e-02 -1.317905e-33
-4.860000e-02 -3.699582e-33
-4.850001e-02 -6.330037e-33
-4.840001e-02 -9.122861e-33
-4.830001e-02 -1.196801e-32
-4.820000e-02 -1.473310e-32
-4.810001e-02 -1.726608e-32
-4.800001e-02 -1.939930e-32
-4.790001e-02 -2.095521e-32
-4.780000e-02 -2.175342e-32
-4.770001e-02 -2.161920e-32
-4.760001e-02 -2.039323e-32
-4.750001e-02 -1.794223e-32
-4.740001e-02 -1.417017e-32
-4.730000e-02 -9.029577e-33
-4.720001e-02 -2.532410e-33
-4.710001e-02 5.240156e-33
-4.700001e-02 1.412968e-32
-4.690000e-02 2.389486e-32
-4.680001e-02 3.420905e-32
-4.670001e-02 4.466164e-32
-4.660001e-02 5.476380e-32
-4.650000e-02 6.395904e-32
-4.640000e-02 7.163906e-32
-4.630001e-02 7.716475e-32
-4.620001e-02 7.989234e-32
-4.610001e-02 7.920430e-32
-4.600000e-02 7.454415e-32
-4.590001e-02 6.545419e-32
-4.580001e-02 5.161480e-32
-4.570001e-02 3.288369e-32
-4.560000e-02 9.332859e-33
-4.550001e-02 -1.871845e-32
-4.540001e-02 -5.067756e-32
-4.530001e-02 -8.566106e-32
-4.520001e-02 -1.224888e-31
-4.510000e-02 -1.596916e-31
-4.500001e-02 -1.955340e-31
-4.490001e-02 -2.280540e-31
-4.480001e-02 -2.551207e-31
-4.470000e-02 -2.745094e-31
-4.460001e-02 -2.839937e-31
-4.450001e-02 -2.814536e-31
-4.440001e-02 -2.649953e-31
-4.430000e-02 -2.330804e-31
-4.420000e-02 -1.846596e-31
-4.410001e-02 -1.193037e-31
-4.400001e-02 -3.732674e-32
-4.390001e-02 6.010676e-32
-4.380000e-02 1.708981e-31
-4.370001e-02 2.919623e-31
-4.360001e-02 4.192149e-31
-4.350001e-02 5.476044e-31
-4.340000e-02 6.711982e-31
-4.330001e-02 7.833220e-31
-4.320001e-02 8.767605e-31
-4.310001e-02 9.440143e-31
-4.300001e-02 9.776128e-31
-4.290000e-02 9.704756e-31
-4.280001e-02 9.163142e-31
-4.270001e-02 8.100587e-31
-4.260001e-02 6.482957e-31
-4.250000e-02 4.296960e-31
-4.240001e-02 1.554124e-31
-4.230001e-02 -1.705797e-31
-4.220001e-02 -5.412198e-31
-4.210000e-02 -9.462077e-31
-4.200000e-02 -1.371976e-30
-4.190001e-02 -1.801816e-30
-4.180001e-02 -2.216170e-30
-4.170001e-02 -2.593108e-30
-4.160000e-02 -2.908989e-30
-4.150001e-02 -3.139309e-30
-4.140001e-02 -3.259721e-30
-4.130001e-02 -3.247206e-30
-4.120000e-02 -3.081368e-30
-4.110001e-02 -2.745801e-30
-4.100001e-02 -2.229485e-30
-4.090001e-02 -1.528141e-30
-4.080001e-02 -6.454755e-31
-4.070000e-02 4.057496e-31
-4.060001e-02 1.602917e-30
-4.050001e-02 2.913093e-30
-4.040001e-02 4.292974e-30
-4.030000e-02 5.689319e-30
-4.020001e-02 7.039910e-30
-4.010001e-02 8.275082e-30
-4.000001e-02 9.319825e-30
-3.990000e-02 1.009648e-29
-3.980000e-02 1.052793e-29
-3.970001e-02 1.054128e-29
-3.960001e-02 1.007192e-29
-3.950001e-02 9.067700e-30
-3.940000e-02 7.493328e-30
-3.930001e-02 5.334490e-30
-3.920001e-02 2.601696e-30
-3.910001e-02 -6.664720e-31
-3.900000e-02 -4.400938e-30
-3.890001e-02 -8.500753e-30
-3.880001e-02 -1.283299e-29
-3.870001e-02 -1.723412e-29
-3.860001e-02 -2.151298e-29
-3.850000e-02 -2.545548e-29
-3.840001e-02 -2.883105e-29
-3.830001e-02 -3.140085e-29
-3.820001e-02 -3.292746e-29
-3.810000e-02 -3.318608e-29
-3.800001e-02 -3.197661e-29
-3.790001e-02 -2.913655e-29
-3.780001e-02 -2.455392e-29
-3.770000e-02 -1.817979e-29
-3.760000e-02 -1.003975e-29
-3.750001e-02 -2.435650e-31
-3.740001e-02 1.100753e-29
-3.730001e-02 2.341675e-29
-3.720000e-02 3.659148e-29
-3.710001e-02 5.004725e-29
-3.700001e-02 6.321656e-29
-3.690001e-02 7.546275e-29
-3.680000e-02 8.609899e-29
-3.670001e-02 9.441232e-29
-3.660001e-02 9.969225e-29
-3.650001e-02 1.012634e-28
-3.640001e-02 9.852113e-29
-3.630000e-02 9.096898e-29
-3.620001e-02 7.825661e-29
-3.610001e-02 6.021636e-29
-3.600001e-02 3.689671e-29
-3.590000e-02 8.590677e-30
-3.580001e-02 -2.414291e-29
-3.570001e-02 -6.046717e-29
-3.560001e-02 -9.926585e-29
-3.550000e-02 -1.391543e-28
-3.540000e-02 -1.785044e-28
-3.530001e-02 -2.154835e-28
-3.520001e-02 -2.481087e-28
-3.510001e-02 -2.743145e-28
-3.500000e-02 -2.920343e-28
-3.490001e-02 -2.992931e-28
-3.480001e-02 -2.943084e-28
-3.470001e-02 -2.755968e-28
-3.460000e-02 -2.420817e-28
-3.450001e-02 -1.931972e-28
-3.440001e-02 -1.289839e-28
-3.430001e-02 -5.016967e-29
-3.420001e-02 4.176808e-29
-3.410000e-02 1.445666e-28
-3.400001e-02 2.551713e-28
-3.390001e-02 3.697643e-28
-3.380001e-02 4.838305e-28
-3.370000e-02 5.922644e-28
-3.360001e-02 6.895165e-28
-3.350001e-02 7.697808e-28
-3.340001e-02 8.272171e-28
-3.330000e-02 8.562061e-28
-3.320001e-02 8.516275e-28
-3.310001e-02 8.091544e-28
-3.300001e-02 7.255501e-28
-3.290001e-02 5.989570e-28
-3.280000e-02 4.291620e-28
-3.270001e-02 2.178245e-28
-3.260001e-02 -3.134828e-29
-3.250001e-02 -3.124949e-28
-3.240000e-02 -6.175730e-28
-3.230001e-02 -9.364265e-28
-3.220001e-02 -1.256955e-27
-3.210001e-02 -1.565389e-27
-3.200001e-02 -1.846683e-27
-3.190000e-02 -2.084999e-27
-3.180001e-02 -2.264311e-27
-3.170001e-02 -2.369074e-27
-3.160001e-02 -2.384973e-27
-3.150000e-02 -2.299708e-27
-3.140001e-02 -2.103797e-27
-3.130001e-02 -1.791349e-27
-3.120001e-02 -1.360788e-27
-3.110000e-02 -8.154778e-28
-3.100001e-02 -1.642072e-28
-3.090001e-02 5.784985e-28
-3.080001e-02 1.392277e-27
-3.070001e-02 2.251072e-27
-3.060000e-02 3.123545e-27
-3.050001e-02 3.973767e-27
-3.040001e-02 4.762202e-27
-3.030001e-02 5.446966e-27
-3.020000e-02 5.985354e-27
-3.010001e-02 6.335593e-27
-3.000001e-02 6.458767e-27
-2.990001e-02 6.320870e-27
-2.980001e-02 5.894891e-27
-2.970000e-02 5.162860e-27
-2.960001e-02 4.117758e-27
-2.950001e-02 2.765178e-27
-2.940001e-02 1.124654e-27
-2.930000e-02 -7.694525e-28
-2.920001e-02 -2.867607e-27
-2.910001e-02 -5.105361e-27
-2.900001e-02 -7.404299e-27
-2.890000e-02 -9.673700e-27
-2.880001e-02 -1.181293e-26
-2.870001e-02 -1.371458e-26
-2.860001e-02 -1.526825e-26
-2.850001e-02 -1.636491e-26
-2.840000e-02 -1.690181e-26
-2.830001e-02 -1.678760e-26
-2.820001e-02 -1.594770e-26
-2.810001e-02 -1.432944e-26
-2.800000e-02 -1.190706e-26
-2.790001e-02 -8.686007e-27
-2.780001e-02 -4.706452e-27
-2.770001e-02 -4.575413e-29
-2.760001e-02 5.180405e-27
-2.750000e-02 1.081839e-26
-2.740001e-02 1.667866e-26
-2.730001e-02 2.253959e-26
-2.720001e-02 2.815313e-26
-2.710000e-02 3.325226e-26
-2.700001e-02 3.756013e-26
-2.690001e-02 4.080074e-26
-2.680001e-02 4.271077e-26
-2.670000e-02 4.305228e-26
-2.660001e-02 4.162584e-26
-2.650001e-02 3.828349e-26
-2.640001e-02 3.294109e-26
-2.630001e-02 2.558925e-26
-2.620000e-02 1.630247e-26
-2.610001e-02 5.245704e-27
-2.600001e-02 -7.322221e-27
-2.590001e-02 -2.104869e-26
-2.580000e-02 -3.549146e-26
-2.570001e-02 -5.012711e-26
-2.560001e-02 -6.436384e-26
-2.550001e-02 -7.755872e-26
-2.540001e-02 -8.903901e-26
-2.530000e-02 -9.812720e-26
-2.520001e-02 -1.041690e-25
-2.510001e-02 -1.065638e-25
-2.500001e-02 -1.047958e-25
-2.490000e-02 -9.846538e-26
-2.480001e-02 -8.731927e-26
-2.470001e-02 -7.127740e-26
-2.460001e-02 -5.045589e-26
-2.450000e-02 -2.518407e-26
-2.440001e-02 3.985486e-27
-2.430001e-02 3.627522e-26
-2.420001e-02 7.069016e-26
-2.410001e-02 1.060355e-25
-2.400000e-02 1.409445e-25
-2.390001e-02 1.739166e-25
-2.380001e-02 2.033657e-25
-2.370001e-02 2.276769e-25
-2.360000e-02 2.452711e-25
-2.350001e-02 2.546750e-25
-2.340001e-02 2.545943e-25
-2.330001e-02 2.439874e-25
-2.320001e-02 2.221373e-25
-2.310000e-02 1.887162e-25
-2.300001e-02 1.438427e-25
-2.290001e-02 8.812508e-26
-2.280001e-02 2.268954e-26
-2.270000e-02 -5.081050e-26
-2.260001e-02 -1.302062e-25
-2.250001e-02 -2.128479e-25
-2.240001e-02 -2.956640e-25
-2.230000e-02 -3.752435e-25
-2.220001e-02 -4.479425e-25
-2.210001e-02 -5.100115e-25
-2.200001e-02 -5.577409e-25
-2.190001e-02 -5.876214e-25
-2.180000e-02 -5.965124e-25
-2.170001e-02 -5.818131e-25
-2.160001e-02 -5.416299e-25
-2.150001e-02 -4.749306e-25
-2.140000e-02 -3.816796e-25
-2.130001e-02 -2.629447e-25
-2.120001e-02 -1.209680e-25
-2.110001e-02 4.080524e-26
-2.100001e-02 2.177460e-25
-2.090000e-02 4.041141e-25
-2.080001e-02 5.931852e-25
-2.070001e-02 7.774331e-25
-2.060001e-02 9.487652e-25
-2.050000e-02 1.098806e-24
-2.040001e-02 1.219222e-24
-2.030001e-02 1.302073e-24
-2.020001e-02 1.340192e-24
-2.010000e-02 1.327551e-24
-2.000001e-02 1.259634e-24
-1.990001e-02 1.133765e-24
-1.980001e-02 9.493952e-25
-1.970001e-02 7.083246e-25
-1.960000e-02 4.148476e-25
-1.950001e-02 7.580121e-26
-1.940001e-02 -2.994844e-25
-1.930001e-02 -6.993458e-25
-1.920000e-02 -1.110055e-24
-1.910001e-02 -1.516195e-24
-1.900001e-02 -1.901130e-24
-1.890001e-02 -2.247570e-24
-1.880001e-02 -2.538191e-24
-1.870000e-02 -2.756310e-24
-1.860001e-02 -2.886587e-24
-1.850001e-02 -2.915709e-24
-1.840001e-02 -2.833064e-24
-1.830000e-02 -2.631348e-24
-1.820001e-02 -2.307097e-24
-1.810001e-02 -1.861128e-24
-1.800001e-02 -1.298850e-24
-1.790000e-02 -6.304603e-25
-1.780001e-02 1.290057e-25
-1.770001e-02 9.597673e-25
-1.760001e-02 1.837537e-24
-1.750001e-02 2.733907e-24
-1.740000e-02 3.616883e-24
-1.730001e-02 4.451566e-24
-1.720001e-02 5.200982e-24
-1.710001e-02 5.827064e-24
-1.700000e-02 6.291784e-24
-1.690001e-02 6.558450e-24
-1.680001e-02 6.593152e-24
-1.670001e-02 6.366370e-24
-1.660001e-02 5.854716e-24
-1.650001e-02 5.042787e-24
-1.640001e-02 3.925088e-24
-1.630001e-02 2.507942e-24
-1.620001e-02 8.113027e-25
-1.610000e-02 -1.129670e-24
-1.600001e-02 -3.263407e-24
-1.590001e-02 -5.521301e-24
-1.580001e-02 -7.817823e-24
-1.570000e-02 -1.005161e-23
-1.560001e-02 -1.210767e-23
-1.550001e-02 -1.386091e-23
-1.540001e-02 -1.518106e-23
-1.530001e-02 -1.593899e-23
-1.520000e-02 -1.601436e-23
-1.510001e-02 -1.530442e-23
-1.500001e-02 -1.373353e-23
-1.490001e-02 -1.126293e-23
-1.480000e-02 -7.900141e-24
-1.470001e-02 -3.707127e-24
-1.460001e-02 1.193600e-24
-1.450001e-02 6.615877e-24
-1.440001e-02 1.231071e-23
-1.430001e-02 1.797180e-23
-1.420001e-02 2.324641e-23
-1.410001e-02 2.775181e-23
-1.400001e-02 3.109734e-23
-1.390000e-02 3.291137e-23
-1.380001e-02 3.287222e-23
-1.370001e-02 3.074122e-23
-1.360001e-02 2.639579e-23
-1.350001e-02 1.985978e-23
-1.340001e-02 1.132795e-23
-1.330001e-02 1.181344e-24
-1.320001e-02 -1.000959e-23
-1.310001e-02 -2.149716e-23
-1.300000e-02 -3.238592e-23
-1.290001e-02 -4.168072e-23
-1.280001e-02 -4.835308e-23
-1.270001e-02 -5.142414e-23
-1.260000e-02 -5.006046e-23
-1.250001e-02 -4.367698e-23
-1.240001e-02 -3.203989e-23
-1.230001e-02 -1.535989e-23
-1.220001e-02 5.634054e-24
-1.210001e-02 2.965175e-23
-1.200001e-02 5.484002e-23
-1.190001e-02 7.883149e-23
-1.180001e-02 9.885106e-23
-1.170000e-02 1.118833e-22
-1.160001e-02 1.148998e-22
-1.150001e-02 1.051392e-22
-1.140001e-02 8.042756e-23
-1.130001e-02 3.951887e-23
-1.120001e-02 -1.756939e-23
-1.110001e-02 -8.925761e-23
-1.100001e-02 -1.721768e-22
-1.090001e-02 -2.610494e-22
-1.080000e-02 -3.487150e-22
-1.070001e-02 -4.263299e-22
-1.060001e-02 -4.837650e-22
-1.050001e-02 -5.102136e-22
-1.040000e-02 -4.950012e-22
-1.030001e-02 -4.285761e-22
-1.020001e-02 -3.036353e-22