-1.388183e-01 0.000000e+00
-1.385683e-01 0.000000e+00
-1.383183e-01 0.000000e+00
-1.380683e-01 0.000000e+00
-1.378183e-01 0.000000e+00
-1.375683e-01 0.000000e+00
-1.373183e-01 0.000000e+00
-1.370683e-01 0.000000e+00
-1.368183e-01 0.000000e+00
-1.365683e-01 0.000000e+00
-1.363183e-01 0.000000e+00
-1.360683e-01 0.000000e+00
-1.358183e-01 0.000000e+00
-1.355683e-01 0.000000e+00
-1.353183e-01 0.000000e+00
-1.350683e-01 0.000000e+00
-1.348183e-01 0.000000e+00
-1.345683e-01 0.000000e+00
-1.343183e-01 0.000000e+00
-1.340683e-01 0.000000e+00
-1.338183e-01 0.000000e+00
-1.335683e-01 0.000000e+00
-1.333183e-01 0.000000e+00
-1.330683e-01 0.000000e+00
-1.328183e-01 0.000000e+00
-1.325683e-01 0.000000e+00
-1.323183e-01 0.000000e+00
-1.320683e-01 0.000000e+00
-1.318183e-01 0.000000e+00
-1.315683e-01 0.000000e+00
-1.313183e-01 0.000000e+00
-1.310683e-01 0.000000e+00
-1.308183e-01 0.000000e+00
-1.305683e-01 0.000000e+00
-1.303183e-01 0.000000e+00
-1.300683e-01 0.000000e+00
-1.298183e-01 0.000000e+00
-1.295683e-01 0.000000e+00
-1.293183e-01 0.000000e+00
-1.290683e-01 0.000000e+00
-1.288183e-01 0.000000e+00
-1.285683e-01 0.000000e+00
-1.283183e-01 0.000000e+00
-1.280683e-01 0.000000e+00
-1.278183e-01 0.000000e+00
-1.275683e-01 0.000000e+00
-1.273183e-01 0.000000e+00
-1.270683e-01 0.000000e+00
-1.268183e-01 0.000000e+00
-1.265683e-01 0.000000e+00
-1.263183e-01 0.000000e+00
-1.260683e-01 0.000000e+00
-1.258183e-01 0.000000e+00
-1.255683e-01 0.000000e+00
-1.253183e-01 0.000000e+00
-1.250683e-01 0.000000e+00
-1.248183e-01 0.000000e+00
-1.245683e-01 0.000000e+00
-1.243183e-01 0.000000e+00
-1.240683e-01 0.000000e+00
-1.238183e-01 0.000000e+00
-1.235683e-01 0.000000e+00
-1.233183e-01 0.000000e+00
-1.230683e-01 0.000000e+00
-1.228183e-01 0.000000e+00
-1.225683e-01 0.000000e+00
-1.223183e-01 0.000000e+00
-1.220683e-01 0.000000e+00
-1.218183e-01 0.000000e+00
-1.215683e-01 0.000000e+00
-1.213183e-01 0.000000e+00
-1.210683e-01 0.000000e+00
-1.208183e-01 0.000000e+00
-1.205683e-01 0.000000e+00
-1.203183e-01 0.000000e+00
-1.200683e-01 0.000000e+00
-1.198183e-01 0.000000e+00
-1.195683e-01 0.000000e+00
-1.193183e-01 0.000000e+00
-1.190683e-01 0.000000e+00
-1.188183e-01 0.000000e+00
-1.185683e-01 0.000000e+00
-1.183183e-01 0.000000e+00
-1.180683e-01 0.000000e+00
-1.178183e-01 0.000000e+00
-1.175683e-01 0.000000e+00
-1.173183e-01 0.000000e+00
-1.170683e-01 0.000000e+00
-1.168183e-01 0.000000e+00
-1.165683e-01 0.000000e+00
-1.163183e-01 0.000000e+00
-1.160683e-01 0.000000e+00
-1.158183e-01 0.000000e+00
-1.155683e-01 0.000000e+00
-1.153183e-01 0.000000e+00
-1.150683e-01 0.000000e+00
-1.148183e-01 0.000000e+00
-1.145683e-01 0.000000e+00
-1.143183e-01 0.000000e+00
-1.140683e-01 0.000000e+00
-1.138183e-01 0.000000e+00
-1.135683e-01 0.000000e+00
-1.133183e-01 0.000000e+00
-1.130683e-01 0.000000e+00
-1.128183e-01 0.000000e+00
-1.125683e-01 0.000000e+00
-1.123183e-01 0.000000e+00
-1.120683e-01 0.000000e+00
-1.118183e-01 0.000000e+00
-1.115683e-01 0.000000e+00
-1.113183e-01 0.000000e+00
-1.110683e-01 0.000000e+00
-1.108183e-01 0.000000e+00
-1.105683e-01 0.000000e+00
-1.103183e-01 0.000000e+00
-1.100683e-01 0.000000e+00
-1.098183e-01 0.000000e+00
-1.095683e-01 0.000000e+00
-1.093183e-01 0.000000e+00
-1.090683e-01 0.000000e+00
-1.088183e-01 0.000000e+00
-1.085683e-01 0.000000e+00
-1.083183e-01 0.000000e+00
-1.080683e-01 0.000000e+00
-1.078183e-01 0.000000e+00
-1.075683e-01 0.000000e+00
-1.073183e-01 0.000000e+00
-1.070683e-01 0.000000e+00
-1.068183e-01 0.000000e+00
-1.065683e-01 0.000000e+00
-1.063183e-01 0.000000e+00
-1.060683e-01 0.000000e+00
-1.058183e-01 0.000000e+00
-1.055683e-01 0.000000e+00
-1.053183e-01 0.000000e+00
-1.050683e-01 0.000000e+00
-1.048183e-01 0.000000e+00
-1.045683e-01 0.000000e+00
-1.043183e-01 0.000000e+00
-1.040683e-01 0.000000e+00
-1.038183e-01 0.000000e+00
-1.035683e-01 0.000000e+00
-1.033183e-01 0.000000e+00
-1.030683e-01 0.000000e+00
-1.028183e-01 0.000000e+00
-1.025683e-01 0.000000e+00
-1.023183e-01 0.000000e+00
-1.020683e-01 0.000000e+00
-1.018183e-01 0.000000e+00
-1.015683e-01 0.000000e+00
-1.013183e-01 0.000000e+00
-1.010683e-01 0.000000e+00
-1.008183e-01 0.000000e+00
-1.005683e-01 0.000000e+00
-1.003183e-01 0.000000e+00
-1.000683e-01 0.000000e+00
-9.981829e-02 0.000000e+00
-9.956829e-02 0.000000e+00
-9.931830e-02 0.000000e+00
-9.906829e-02 0.000000e+00
-9.881829e-02 0.000000e+00
-9.856829e-02 0.000000e+00
-9.831829e-02 0.000000e+00
-9.806830e-02 0.000000e+00
-9.781829e-02 0.000000e+00
-9.756829e-02 0.000000e+00
-9.731829e-02 0.000000e+00
-9.706829e-02 0.000000e+00
-9.681829e-02 0.000000e+00
-9.656829e-02 0.000000e+00
-9.631829e-02 0.000000e+00
-9.606829e-02 0.000000e+00
-9.581830e-02 0.000000e+00
-9.556829e-02 0.000000e+00
-9.531829e-02 0.000000e+00
-9.506829e-02 0.000000e+00
-9.481829e-02 0.000000e+00
-9.456830e-02 0.000000e+00
-9.431829e-02 0.000000e+00
-9.406829e-02 0.000000e+00
-9.381829e-02 0.000000e+00
-9.356830e-02 0.000000e+00
-9.331829e-02 0.000000e+00
-9.306829e-02 0.000000e+00
-9.281829e-02 0.000000e+00
-9.256829e-02 0.000000e+00
-9.231830e-02 0.000000e+00
-9.206829e-02 0.000000e+00
-9.181829e-02 0.000000e+00
-9.156829e-02 0.000000e+00
-9.131829e-02 0.000000e+00
-9.106829e-02 0.000000e+00
-9.081829e-02 0.000000e+00
-9.056829e-02 0.000000e+00
-9.031829e-02 0.000000e+00
-9.006830e-02 0.000000e+00
-8.981829e-02 0.000000e+00
-8.956829e-02 0.000000e+00
-8.931829e-02 0.000000e+00
-8.906829e-02 0.000000e+00
-8.881830e-02 0.000000e+00
-8.856829e-02 0.000000e+00
-8.831829e-02 0.000000e+00
-8.806829e-02 0.000000e+00
-8.781829e-02 0.000000e+00
-8.756829e-02 0.000000e+00
-8.731829e-02 0.000000e+00
-8.706829e-02 0.000000e+00
-8.681829e-02 0.000000e+00
-8.656830e-02 0.000000e+00
-8.631829e-02 0.000000e+00
-8.606829e-02 0.000000e+00
-8.581829e-02 0.000000e+00
-8.556829e-02 0.000000e+00
-8.531829e-02 0.000000e+00
-8.506829e-02 0.000000e+00
-8.481829e-02 0.000000e+00
-8.456829e-02 0.000000e+00
-8.431830e-02 0.000000e+00
-8.406829e-02 0.000000e+00
-8.381829e-02 0.000000e+00
-8.356829e-02 0.000000e+00
-8.331829e-02 0.000000e+00
-8.306830e-02 0.000000e+00
-8.281829e-02 0.000000e+00
-8.256829e-02 0.000000e+00
-8.231829e-02 0.000000e+00
-8.206829e-02 0.000000e+00
-8.181829e-02 0.000000e+00
-8.156829e-02 0.000000e+00
-8.131829e-02 0.000000e+00
-8.106829e-02 0.000000e+00
-8.081830e-02 0.000000e+00
-8.056829e-02 0.000000e+00
-8.031829e-02 0.000000e+00
-8.006829e-02 0.000000e+00
-7.981829e-02 0.000000e+00
-7.956829e-02 0.000000e+00
-7.931829e-02 0.000000e+00
-7.906829e-02 0.000000e+00
-7.881829e-02 0.000000e+00
-7.856829e-02 0.000000e+00
-7.831829e-02 0.000000e+00
-7.806829e-02 0.000000e+00
-7.781829e-02 0.000000e+00
-7.756829e-02 0.000000e+00
-7.731830e-02 0.000000e+00
-7.706829e-02 0.000000e+00
-7.681829e-02 0.000000e+00
-7.656829e-02 0.000000e+00
-7.631829e-02 0.000000e+00
-7.606829e-02 0.000000e+00
-7.581829e-02 0.000000e+00
-7.556829e-02 0.000000e+00
-7.531829e-02 0.000000e+00
-7.506829e-02 0.000000e+00
-7.481829e-02 0.000000e+00
-7.456829e-02 0.000000e+00
-7.431829e-02 0.000000e+00
-7.406829e-02 0.000000e+00
-7.381829e-02 0.000000e+00
-7.356829e-02 0.000000e+00
-7.331829e-02 0.000000e+00
-7.306829e-02 0.000000e+00
-7.281829e-02 0.000000e+00
-7.256829e-02 0.000000e+00
-7.231829e-02 0.000000e+00
-7.206829e-02 0.000000e+00
-7.181829e-02 0.000000e+00
-7.156829e-02 0.000000e+00
-7.131829e-02 0.000000e+00
-7.106829e-02 0.000000e+00
-7.081829e-02 0.000000e+00
-7.056829e-02 0.000000e+00
-7.031829e-02 0.000000e+00
-7.006829e-02 0.000000e+00
-6.981829e-02 0.000000e+00
-6.956829e-02 0.000000e+00
-6.931829e-02 0.000000e+00
-6.906829e-02 0.000000e+00
-6.881829e-02 0.000000e+00
-6.856829e-02 0.000000e+00
-6.831829e-02 0.000000e+00
-6.806829e-02 0.000000e+00
-6.781829e-02 0.000000e+00
-6.756829e-02 0.000000e+00
-6.731829e-02 0.000000e+00
-6.706829e-02 0.000000e+00
-6.681829e-02 0.000000e+00
-6.656829e-02 0.000000e+00
-6.631829e-02 0.000000e+00
-6.606829e-02 0.000000e+00
-6.581829e-02 0.000000e+00
-6.556829e-02 0.000000e+00
-6.531829e-02 0.000000e+00
-6.506829e-02 0.000000e+00
-6.481829e-02 0.000000e+00
-6.456829e-02 0.000000e+00
-6.431829e-02 0.000000e+00
-6.406829e-02 0.000000e+00
-6.381829e-02 0.000000e+00
-6.356829e-02 0.000000e+00
-6.331829e-02 0.000000e+00
-6.306829e-02 0.000000e+00
-6.281829e-02 0.000000e+00
-6.256829e-02 0.000000e+00
-6.231829e-02 0.000000e+00
-6.206829e-02 0.000000e+00
-6.181829e-02 0.000000e+00
-6.156829e-02 0.000000e+00
-6.131829e-02 0.000000e+00
-6.106829e-02 0.000000e+00
-6.081829e-02 0.000000e+00
-6.056829e-02 0.000000e+00
-6.031829e-02 0.000000e+00
-6.006829e-02 0.000000e+00
-5.981829e-02 0.000000e+00
-5.956829e-02 0.000000e+00
-5.931829e-02 0.000000e+00
-5.906829e-02 0.000000e+00
-5.881829e-02 0.000000e+00
-5.856829e-02 0.000000e+00
-5.831829e-02 0.000000e+00
-5.806829e-02 0.000000e+00
-5.781829e-02 0.000000e+00
-5.756829e-02 0.000000e+00
-5.731829e-02 0.000000e+00
-5.706829e-02 0.000000e+00
-5.681829e-02 0.000000e+00
-5.656829e-02 0.000000e+00
-5.631829e-02 0.000000e+00
-5.606829e-02 0.000000e+00
-5.581829e-02 0.000000e+00
-5.556829e-02 0.000000e+00
-5.531829e-02 0.000000e+00
-5.506829e-02 0.000000e+00
-5.481829e-02 0.000000e+00
-5.456829e-02 0.000000e+00
-5.431829e-02 0.000000e+00
-5.406829e-02 0.000000e+00
-5.381829e-02 0.000000e+00
-5.356829e-02 0.000000e+00
-5.331829e-02 0.000000e+00
-5.306829e-02 0.000000e+00
-5.281829e-02 0.000000e+00
-5.256829e-02 0.000000e+00
-5.231829e-02 0.000000e+00
-5.206829e-02 0.000000e+00
-5.181829e-02 0.000000e+00
-5.156829e-02 0.000000e+00
-5.131829e-02 0.000000e+00
-5.106829e-02 0.000000e+00
-5.081829e-02 0.000000e+00
-5.056829e-02 0.000000e+00
-5.031829e-02 0.000000e+00
-5.006829e-02 0.000000e+00
-4.981829e-02 0.000000e+00
-4.956829e-02 0.000000e+00
-4.931829e-02 0.000000e+00
-4.906829e-02 0.000000e+00
-4.881829e-02 0.000000e+00
-4.856829e-02 0.000000e+00
-4.831829e-02 0.000000e+00
-4.806829e-02 0.000000e+00
-4.781829e-02 0.000000e+00
-4.756829e-02 0.000000e+00
-4.731829e-02 0.000000e+00
-4.706829e-02 0.000000e+00
-4.681829e-02 0.000000e+00
-4.656829e-02 0.000000e+00
-4.631829e-02 0.000000e+00
-4.606829e-02 0.000000e+00
-4.581829e-02 0.000000e+00
-4.556829e-02 0.000000e+00
-4.531829e-02 0.000000e+00
-4.506829e-02 0.000000e+00
-4.481829e-02 0.000000e+00
-4.456829e-02 0.000000e+00
-4.431829e-02 0.000000e+00
-4.406829e-02 0.000000e+00
-4.381829e-02 0.000000e+00
-4.356829e-02 0.000000e+00
-4.331829e-02 0.000000e+00
-4.306829e-02 0.000000e+00
-4.281829e-02 0.000000e+00
-4.256829e-02 0.000000e+00
-4.231829e-02 0.000000e+00
-4.206829e-02 0.000000e+00
-4.181829e-02 0.000000e+00
-4.156829e-02 0.000000e+00
-4.131829e-02 0.000000e+00
-4.106829e-02 0.000000e+00
-4.081829e-02 0.000000e+00
-4.056829e-02 0.000000e+00
-4.031829e-02 0.000000e+00
-4.006829e-02 0.000000e+00
-3.981829e-02 0.000000e+00
-3.956829e-02 0.000000e+00
-3.931829e-02 0.000000e+00
-3.906829e-02 0.000000e+00
-3.881829e-02 0.000000e+00
-3.856829e-02 0.000000e+00
-3.831829e-02 0.000000e+00
-3.806829e-02 0.000000e+00
-3.781829e-02 0.000000e+00
-3.756829e-02 0.000000e+00
-3.731829e-02 0.000000e+00
-3.706829e-02 0.000000e+00
-3.681829e-02 0.000000e+00
-3.656829e-02 0.000000e+00
-3.631829e-02 0.000000e+00
-3.606829e-02 0.000000e+00
-3.581829e-02 0.000000e+00
-3.556829e-02 0.000000e+00
-3.531829e-02 0.000000e+00
-3.506829e-02 0.000000e+00
-3.481829e-02 0.000000e+00
-3.456829e-02 0.000000e+00
-3.431829e-02 0.000000e+00
-3.406829e-02 0.000000e+00
-3.381829e-02 0.000000e+00
-3.356829e-02 0.000000e+00
-3.331829e-02 0.000000e+00
-3.306829e-02 0.000000e+00
-3.281829e-02 0.000000e+00
-3.256829e-02 0.000000e+00
-3.231829e-02 0.000000e+00
-3.206829e-02 0.000000e+00
-3.181829e-02 0.000000e+00
-3.156829e-02 0.000000e+00
-3.131829e-02 0.000000e+00
-3.106829e-02 0.000000e+00
-3.081829e-02 0.000000e+00
-3.056829e-02 0.000000e+00
-3.031829e-02 0.000000e+00
-3.006829e-02 0.000000e+00
-2.981829e-02 0.000000e+00
-2.956829e-02 0.000000e+00
-2.931829e-02 0.000000e+00
-2.906829e-02 0.000000e+00
-2.881829e-02 0.000000e+00
-2.856829e-02 0.000000e+00
-2.831829e-02 0.000000e+00
-2.806829e-02 0.000000e+00
-2.781828e-02 0.000000e+00
-2.756829e-02 0.000000e+00
-2.731829e-02 0.000000e+00
-2.706829e-02 0.000000e+00
-2.681829e-02 0.000000e+00
-2.656829e-02 0.000000e+00
-2.631829e-02 0.000000e+00
-2.606829e-02 0.000000e+00
-2.581829e-02 0.000000e+00
-2.556829e-02 0.000000e+00
-2.531829e-02 0.000000e+00
-2.506829e-02 0.000000e+00
-2.481829e-02 0.000000e+00
-2.456829e-02 0.000000e+00
-2.431829e-02 0.000000e+00
-2.406829e-02 0.000000e+00
-2.381829e-02 0.000000e+00
-2.356829e-02 0.000000e+00
-2.331829e-02 0.000000e+00
-2.306829e-02 0.000000e+00
-2.281829e-02 0.000000e+00
-2.256829e-02 0.000000e+00
-2.231829e-02 0.000000e+00
-2.206829e-02 0.000000e+00
-2.181829e-02 0.000000e+00
-2.156829e-02 0.000000e+00
-2.131829e-02 0.000000e+00
-2.106829e-02 0.000000e+00
-2.081829e-02 0.000000e+00
-2.056829e-02 0.000000e+00
-2.031828e-02 0.000000e+00
-2.006829e-02 0.000000e+00
-1.981829e-02 0.000000e+00
-1.956829e-02 0.000000e+00
-1.931829e-02 0.000000e+00
-1.906829e-02 0.000000e+00
-1.881829e-02 0.000000e+00
-1.856828e-02 0.000000e+00
-1.831829e-02 0.000000e+00
-1.806829e-02 0.000000e+00
-1.781829e-02 0.000000e+00
-1.756829e-02 0.000000e+00
-1.731829e-02 0.000000e+00
-1.706829e-02 0.000000e+00
-1.681828e-02 0.000000e+00
-1.656829e-02 0.000000e+00
-1.631829e-02 0.000000e+00
-1.606829e-02 0.000000e+00
-1.581829e-02 0.000000e+00
-1.556829e-02 0.000000e+00
-1.531829e-02 0.000000e+00
-1.506829e-02 0.000000e+00
-1.481829e-02 0.000000e+00
-1.456829e-02 0.000000e+00
-1.431829e-02 0.000000e+00
-1.406829e-02 0.000000e+00
-1.381829e-02 0.000000e+00
-1.356828e-02 0.000000e+00
-1.331829e-02 0.000000e+00
-1.306829e-02 0.000000e+00
-1.281829e-02 0.000000e+00
-1.256830e-02 0.000000e+00
-1.231828e-02 0.000000e+00
-1.206829e-02 0.000000e+00
-1.181829e-02 0.000000e+00
-1.156829e-02 0.000000e+00
-1.131828e-02 0.000000e+00
-1.106828e-02 0.000000e+00
-1.081829e-02 0.000000e+00
-1.056829e-02 0.000000e+00
-1.031829e-02 0.000000e+00
-1.006828e-02 0.000000e+00
-9.818286e-03 0.000000e+00
-9.568289e-03 0.000000e+00
-9.318292e-03 0.000000e+00
-9.068280e-03 0.000000e+00
-8.818284e-03 0.000000e+00
-8.568287e-03 0.000000e+00
-8.318290e-03 0.000000e+00
-8.068293e-03 0.000000e+00
-7.818282e-03 0.000000e+00
-7.568285e-03 0.000000e+00
-7.318288e-03 0.000000e+00
-7.068291e-03 0.000000e+00
-6.818295e-03 0.000000e+00
-6.568283e-03 0.000000e+00
-6.318286e-03 0.000000e+00
-6.068289e-03 0.000000e+00
-5.818292e-03 0.000000e+00
-5.568281e-03 0.000000e+00
-5.318284e-03 0.000000e+00
-5.068287e-03 0.000000e+00
-4.818290e-03 0.000000e+00
-4.568294e-03 0.000000e+00
-4.318282e-03 0.000000e+00
-4.068285e-03 0.000000e+00
-3.818288e-03 0.000000e+00
-3.568292e-03 0.000000e+00
-3.318280e-03 0.000000e+00
-3.068283e-03 0.000000e+00
-2.818286e-03 0.000000e+00
-2.568290e-03 0.000000e+00
-2.318293e-03 0.000000e+00
-2.068281e-03 0.000000e+00
-1.818284e-03 0.000000e+00
-1.568288e-03 0.000000e+00
-1.318291e-03 0.000000e+00
-1.068294e-03 0.000000e+00
-8.182824e-04 0.000000e+00
-5.682856e-04 0.000000e+00
-3.182888e-04 0.000000e+00
-6.829202e-05 0.000000e+00
1.817197e-04 0.000000e+00
4.317164e-04 0.000000e+00
6.817132e-04 0.000000e+00
9.317100e-04 0.000000e+00
1.181707e-03 0.000000e+00
1.431718e-03 0.000000e+00
1.681715e-03 0.000000e+00
1.931712e-03 0.000000e+00
2.181709e-03 0.000000e+00
2.431706e-03 0.000000e+00
2.681717e-03 0.000000e+00
2.931714e-03 0.000000e+00
3.181711e-03 0.000000e+00
3.431708e-03 0.000000e+00
3.681719e-03 0.000000e+00
3.931716e-03 0.000000e+00
4.181713e-03 0.000000e+00
4.431710e-03 0.000000e+00
4.681706e-03 0.000000e+00
4.931718e-03 0.000000e+00
5.181715e-03 0.000000e+00
5.431712e-03 0.000000e+00
5.681708e-03 0.000000e+00
5.931720e-03 0.000000e+00
6.181717e-03 0.000000e+00
6.431714e-03 0.000000e+00
6.681710e-03 0.000000e+00
6.931707e-03 0.000000e+00
7.181719e-03 0.000000e+00
7.431716e-03 0.000000e+00
7.681713e-03 0.000000e+00
7.931709e-03 0.000000e+00
8.181706e-03 0.000000e+00
8.431718e-03 0.000000e+00
8.681715e-03 0.000000e+00
8.931711e-03 0.000000e+00
9.181708e-03 0.000000e+00
9.431720e-03 0.000000e+00
9.681717e-03 0.000000e+00
9.931713e-03 0.000000e+00
1.018171e-02 0.000000e+00
1.043171e-02 0.000000e+00
1.068172e-02 0.000000e+00
1.093172e-02 0.000000e+00
1.118171e-02 0.000000e+00
1.143171e-02 0.000000e+00
1.168172e-02 0.000000e+00
1.193172e-02 0.000000e+00
1.218171e-02 0.000000e+00
1.243171e-02 0.000000e+00
1.268171e-02 0.000000e+00
1.293172e-02 0.000000e+00
1.318172e-02 0.000000e+00
1.343171e-02 0.000000e+00
1.368171e-02 0.000000e+00
1.393171e-02 0.000000e+00
1.418172e-02 0.000000e+00
1.443172e-02 0.000000e+00
1.468171e-02 0.000000e+00
1.493171e-02 0.000000e+00
1.518172e-02 0.000000e+00
1.543172e-02 0.000000e+00
1.568171e-02 0.000000e+00
1.593171e-02 0.000000e+00
1.618171e-02 0.000000e+00
1.643172e-02 0.000000e+00
1.668172e-02 0.000000e+00
1.693171e-02 0.000000e+00
1.718171e-02 0.000000e+00
1.743171e-02 0.000000e+00
1.768172e-02 0.000000e+00
1.793171e-02 0.000000e+00
1.818171e-02 0.000000e+00
1.843171e-02 0.000000e+00
1.868172e-02 0.000000e+00
1.893172e-02 0.000000e+00
1.918171e-02 0.000000e+00
1.943171e-02 0.000000e+00
1.968171e-02 0.000000e+00
1.993172e-02 0.000000e+00
2.018172e-02 0.000000e+00
2.043171e-02 0.000000e+00
2.068171e-02 0.000000e+00
2.093172e-02 0.000000e+00
2.118172e-02 0.000000e+00
2.143171e-02 0.000000e+00
2.168171e-02 0.000000e+00
2.193171e-02 0.000000e+00
2.218172e-02 0.000000e+00
2.243172e-02 0.000000e+00
2.268171e-02 0.000000e+00
2.293171e-02 0.000000e+00
2.318171e-02 0.000000e+00
2.343172e-02 0.000000e+00
2.368172e-02 0.000000e+00
2.393171e-02 0.000000e+00
2.418171e-02 0.000000e+00
2.443172e-02 0.000000e+00
2.468172e-02 0.000000e+00
2.493171e-02 0.000000e+00
2.518171e-02 0.000000e+00
2.543171e-02 0.000000e+00
2.568172e-02 0.000000e+00
2.593172e-02 0.000000e+00
2.618171e-02 0.000000e+00
2.643171e-02 0.000000e+00
2.668172e-02 0.000000e+00
2.693172e-02 0.000000e+00
2.718171e-02 0.000000e+00
2.743171e-02 0.000000e+00
2.768171e-02 0.000000e+00
2.793172e-02 0.000000e+00
2.818172e-02 0.000000e+00
2.843171e-02 0.000000e+00
2.868171e-02 0.000000e+00
2.893171e-02 0.000000e+00
2.918172e-02 0.000000e+00
2.943172e-02 0.000000e+00
2.968171e-02 0.000000e+00
2.993171e-02 0.000000e+00
3.018172e-02 0.000000e+00
3.043172e-02 0.000000e+00
3.068171e-02 0.000000e+00
3.093171e-02 0.000000e+00
3.118171e-02 0.000000e+00
3.143172e-02 0.000000e+00
3.168172e-02 0.000000e+00
3.193171e-02 0.000000e+00
3.218171e-02 0.000000e+00
3.243172e-02 0.000000e+00
3.268172e-02 0.000000e+00
3.293172e-02 0.000000e+00
3.318171e-02 0.000000e+00
3.343171e-02 0.000000e+00
3.368172e-02 0.000000e+00
3.393172e-02 0.000000e+00
3.418171e-02 0.000000e+00
3.443171e-02 0.000000e+00
3.468171e-02 0.000000e+00
3.493172e-02 0.000000e+00
3.518172e-02 0.000000e+00
3.543171e-02 0.000000e+00
3.568171e-02 0.000000e+00
3.593172e-02 0.000000e+00
3.618172e-02 0.000000e+00
3.643171e-02 0.000000e+00
3.668171e-02 0.000000e+00
3.693171e-02 0.000000e+00
3.718172e-02 0.000000e+00
3.743172e-02 0.000000e+00
3.768171e-02 0.000000e+00
3.793171e-02 0.000000e+00
3.818171e-02 0.000000e+00
3.843172e-02 0.000000e+00
3.868172e-02 0.000000e+00
3.893171e-02 0.000000e+00
3.918171e-02 0.000000e+00
3.943172e-02 0.000000e+00
3.968172e-02 0.000000e+00
3.993171e-02 0.000000e+00
4.018171e-02 0.000000e+00
4.043171e-02 0.000000e+00
4.068172e-02 0.000000e+00
4.093172e-02 0.000000e+00
4.118171e-02 0.000000e+00
4.143171e-02 0.000000e+00
4.168172e-02 0.000000e+00
4.193172e-02 0.000000e+00
4.218172e-02 0.000000e+00
4.243171e-02 0.000000e+00
4.268171e-02 0.000000e+00
4.293172e-02 0.000000e+00
4.318172e-02 0.000000e+00
4.343171e-02 0.000000e+00
4.368171e-02 0.000000e+00
4.393171e-02 0.000000e+00
4.418172e-02 0.000000e+00
4.443172e-02 0.000000e+00
4.468171e-02 0.000000e+00
4.493171e-02 0.000000e+00
4.518172e-02 0.000000e+00
4.543172e-02 0.000000e+00
4.568172e-02 0.000000e+00
4.593171e-02 0.000000e+00
4.618171e-02 0.000000e+00
4.643172e-02 0.000000e+00
4.668172e-02 0.000000e+00
4.693171e-02 2.802597e-45
4.718171e-02 2.802597e-45
4.743172e-02 2.802597e-45
4.768172e-02 -4.203895e-45
4.793172e-02 -9.809089e-45
4.818171e-02 -1.541428e-44
4.843171e-02 -1.681558e-44
4.868172e-02 -5.605194e-45
4.893172e-02 1.261169e-44
4.918171e-02 3.222986e-44
4.943171e-02 4.624285e-44
4.968171e-02 4.063766e-44
4.993172e-02 1.821688e-44
5.018172e-02 -2.242078e-44
5.043171e-02 -7.286752e-44
5.068171e-02 -1.135052e-43
5.093172e-02 -1.275182e-43
5.118172e-02 -9.248570e-44
5.143172e-02 -9.809089e-45
5.168171e-02 1.079000e-43
5.193171e-02 2.298129e-43
5.218172e-02 3.040818e-43
5.243172e-02 2.928714e-43
5.268171e-02 1.681558e-43
5.293171e-02 -6.445973e-44
5.318171e-02 -3.531272e-43
5.343172e-02 -6.123674e-43
5.368172e-02 -7.356817e-43
5.393171e-02 -6.263804e-43
5.418171e-02 -2.480298e-43
5.443172e-02 3.531272e-43
5.468172e-02 1.032757e-42
5.493172e-02 1.565250e-42
5.518171e-02 1.702578e-42
5.543171e-02 1.256965e-42
5.568172e-02 1.933792e-43
5.593172e-02 -1.304609e-42
5.618171e-02 -2.836228e-42
5.643171e-02 -3.847966e-42
5.668172e-02 -3.786308e-42
5.693172e-02 -2.312142e-42
5.718172e-02 5.142765e-43
5.743171e-02 4.107206e-42
5.768171e-02 7.403060e-42
5.793172e-02 9.088822e-42
5.818172e-02 8.009822e-42
5.843171e-02 3.630764e-42
5.868171e-02 -3.539680e-42
5.893171e-02 -1.179893e-41
5.918172e-02 -1.848173e-41
5.943172e-02 -2.061450e-41
5.968171e-02 -1.591315e-41
5.993171e-02 -3.842360e-42
6.018172e-02 1.360521e-41
6.043172e-02 3.181648e-41
6.068172e-02 4.437912e-41
6.093171e-02 4.485556e-41
6.118171e-02 2.912739e-41
6.143172e-02 -2.338767e-42
6.168172e-02 -4.317401e-41
6.193171e-02 -8.151774e-41
6.218171e-02 -1.025849e-40
6.243172e-02 -9.311768e-41
6.268172e-02 -4.673891e-41
6.293172e-02 3.153062e-41
6.318171e-02 1.234208e-40
6.343171e-02 1.998574e-40
6.368172e-02 2.281076e-40
6.393172e-02 1.825570e-40
6.418172e-02 5.629857e-41
6.443171e-02 -1.303992e-40
6.468171e-02 -3.288735e-40
6.493172e-02 -4.708069e-40
6.518172e-02 -4.868952e-40
6.543171e-02 -3.317364e-40
6.568171e-02 -7.854278e-42
6.593172e-02 4.202144e-40
6.618172e-02 8.299569e-40
6.643172e-02 1.067307e-39
6.668171e-02 9.927429e-40
6.693171e-02 5.364311e-40
6.718172e-02 -2.548345e-40
6.743172e-02 -1.198532e-39
6.768171e-02 -2.000644e-39
6.793171e-02 -2.327866e-39
6.818172e-02 -1.916217e-39
6.843172e-02 -6.878666e-40
6.868172e-02 1.163707e-39
6.893171e-02 3.160857e-39
6.918171e-02 4.627868e-39
6.943172e-02 4.874949e-39
6.968172e-02 3.443209e-39
6.993172e-02 3.403207e-40
7.018171e-02 -3.821243e-39
7.043171e-02 -7.862852e-39
7.068172e-02 -1.029455e-38
7.093172e-02 -9.758895e-39
7.118171e-02 -5.560029e-39
7.143171e-02 1.887702e-39
7.168172e-02 1.087766e-38
7.193172e-02 1.864063e-38
7.218172e-02 2.202583e-38
7.243171e-02 1.852153e-38
7.268171e-02 7.347689e-39
7.293172e-02 -9.752124e-39
7.318172e-02 -2.839362e-38
7.343172e-02 -4.235043e-38
7.368171e-02 -4.524986e-38
7.393171e-02 -3.281816e-38
7.418172e-02 -5.028127e-39
7.443172e-02 3.265244e-38
7.468171e-02 6.962223e-38
7.493171e-02 9.245620e-38
7.518172e-02 8.889880e-38
7.543172e-02 5.259346e-38
7.568172e-02 -1.293746e-38
7.593171e-02 -9.270733e-38
7.618171e-02 -1.623329e-37
7.643172e-02 -1.940621e-37
7.668172e-02 -1.657359e-37
7.693172e-02 -7.030931e-38
7.718171e-02 7.731923e-38
7.743172e-02 2.393859e-37
7.768172e-02 3.622553e-37
7.793172e-02 3.910728e-37
7.818171e-02 2.890002e-37
7.843171e-02 5.544689e-38
7.868172e-02 -2.635062e-37
7.893172e-02 -5.784152e-37
7.918172e-02 -7.761889e-37
7.943171e-02 -7.537668e-37
7.968171e-02 -4.576370e-37
7.993172e-02 8.328699e-38
8.018172e-02 7.450146e-37
8.043171e-02 1.326191e-36
8.068171e-02 1.598284e-36
8.093172e-02 1.379342e-36
8.118172e-02 6.115501e-37
8.143172e-02 -5.840126e-37
8.168171e-02 -1.901186e-36
8.193171e-02 -2.906675e-36
8.218172e-02 -3.159074e-36
8.243172e-02 -2.363338e-36
8.268172e-02 -5.154200e-37
8.293171e-02 2.017054e-36
8.318172e-02 4.524137e-36
8.343172e-02 6.112407e-36
8.368172e-02 5.971932e-36
8.393171e-02 3.685795e-36
8.418171e-02 -5.162736e-37
8.443172e-02 -5.665214e-36
8.468172e-02 -1.019710e-35
8.493172e-02 -1.234708e-35
8.518171e-02 -1.071998e-35
8.543171e-02 -4.882379e-36
8.568172e-02 4.227871e-36
8.593172e-02 1.426842e-35
8.618172e-02 2.194723e-35
8.643171e-02 2.393379e-35
8.668172e-02 1.802500e-35
8.693172e-02 4.220330e-36
8.718172e-02 -1.469788e-35
8.743171e-02 -3.341455e-35
8.768171e-02 -4.529200e-35
8.793172e-02 -4.436393e-35
8.818172e-02 -2.761394e-35
8.843172e-02 3.192267e-36
8.868171e-02 4.088407e-35
8.893172e-02 7.400694e-35
8.918172e-02 8.974438e-35
8.943172e-02 7.807633e-35
8.968171e-02 3.602717e-35
8.993171e-02 -2.947159e-35
9.018172e-02 -1.014696e-34
9.043172e-02 -1.563837e-34
9.068172e-02 -1.705863e-34
9.093171e-02 -1.286955e-34
9.118171e-02 -3.108333e-35
9.143172e-02 1.022399e-34
9.168172e-02 2.336555e-34
9.193172e-02 3.166682e-34
9.218171e-02 3.099705e-34
9.243172e-02 1.932430e-34
9.268172e-02 -2.042284e-35
9.293172e-02 -2.806962e-34
9.318171e-02 -5.082824e-34
9.343171e-02 -6.154354e-34
9.368172e-02 -5.345751e-34
9.393172e-02 -2.469933e-34
9.418172e-02 1.984007e-34
9.443171e-02 6.853558e-34
9.468171e-02 1.054212e-33
9.493172e-02 1.146973e-33
9.518172e-02 8.629737e-34
9.543172e-02 2.082357e-34
9.568171e-02 -6.803084e-34
9.593172e-02 -1.550425e-33
9.618172e-02 -2.094342e-33
9.643172e-02 -2.042607e-33
9.668171e-02 -1.267538e-33
9.693171e-02 1.375619e-34
9.718172e-02 1.837047e-33
9.743172e-02 3.311011e-33
9.768172e-02 3.991815e-33
9.793171e-02 3.450424e-33
9.818172e-02 1.579509e-33
9.843172e-02 -1.291399e-33
9.868172e-02 -4.405334e-33
9.893171e-02 -6.738612e-33
9.918171e-02 -7.293182e-33
9.943172e-02 -5.450203e-33
9.968172e-02 -1.276200e-33
9.993172e-02 4.336280e-33
1.001817e-01 9.782087e-33
1.004317e-01 1.313198e-32
1.006817e-01 1.272631e-32
1.009317e-01 7.815833e-33
1.011817e-01 -9.624116e-34
1.014317e-01 -1.147873e-32
1.016817e-01 -2.049833e-32
1.019317e-01 -2.454420e-32
1.021817e-01 -2.104721e-32
1.024317e-01 -9.450640e-33
1.026817e-01 8.125411e-33
1.029317e-01 2.699373e-32
1.031817e-01 4.092645e-32
1.034317e-01 4.395542e-32
1.036817e-01 3.250113e-32
1.039317e-01 7.167288e-33
1.041817e-01 -2.649948e-32
1.044317e-01 -5.878797e-32
1.046817e-01 -7.822399e-32
1.049317e-01 -7.513635e-32
1.051817e-01 -4.541845e-32
1.054317e-01 6.773766e-33
1.056817e-01 6.856676e-32
1.059317e-01 1.208281e-31
1.061817e-01 1.433531e-31
1.064317e-01 1.216044e-31
1.066817e-01 5.302479e-32
1.069317e-01 -4.935998e-32
1.071817e-01 -1.579095e-31
1.074317e-01 -2.366087e-31
1.076817e-01 -2.516106e-31
1.079317e-01 -1.834088e-31
1.081817e-01 -3.679358e-32
1.084317e-01 1.553444e-31
1.086817e-01 3.370611e-31
1.089317e-01 4.434926e-31
1.091817e-01 4.212254e-31
1.094317e-01 2.492595e-31
1.096817e-01 -4.654277e-32
1.099317e-01 -3.919577e-31
1.101817e-01 -6.792422e-31
1.104317e-01 -7.968170e-31
1.106817e-01 -6.668326e-31
1.109317e-01 -2.794026e-31
1.111817e-01 2.890335e-31
1.114317e-01 8.830389e-31
1.116817e-01 1.304314e-30
1.119317e-01 1.370504e-30
1.121817e-01 9.813717e-31
1.124317e-01 1.711696e-31
1.126817e-01 -8.738426e-31
1.129317e-01 -1.846344e-30
1.131817e-01 -2.397241e-30
1.134317e-01 -2.246497e-30
1.136817e-01 -1.294206e-30
1.139317e-01 3.062317e-31
1.141817e-01 2.146176e-30
1.144317e-01 3.647051e-30
1.146817e-01 4.222316e-30
1.149317e-01 3.476910e-30
1.151817e-01 1.383662e-30
1.154317e-01 -1.628827e-30
1.156817e-01 -4.725909e-30
1.159317e-01 -6.866459e-30
1.161817e-01 -7.115649e-30
1.164317e-01 -4.987658e-30
1.166817e-01 -7.070497e-31
1.169317e-01 4.717987e-30
1.171817e-01 9.675406e-30
1.174317e-01 1.237376e-29
1.176817e-01 1.141736e-29
1.179317e-01 6.366664e-30
1.181817e-01 -1.911154e-30
1.184317e-01 -1.126546e-29
1.186817e-01 -1.872937e-29
1.189317e-01 -2.136360e-29
1.191817e-01 -1.726639e-29
1.194317e-01 -6.438531e-30
1.196817e-01 8.822584e-30
1.199317e-01 2.423224e-29
1.201817e-01 3.457058e-29
1.204317e-01 3.527134e-29
1.206817e-01 2.411440e-29
1.209317e-01 2.465214e-30
1.211817e-01 -2.445558e-29
1.214317e-01 -4.856308e-29
1.216817e-01 -6.107911e-29
1.219317e-01 -5.538290e-29
1.221817e-01 -2.970666e-29
1.224317e-01 1.127536e-29
1.226817e-01 5.673176e-29
1.229317e-01 9.211526e-29
1.231817e-01 1.033646e-28
1.234317e-01 8.178932e-29
1.236817e-01 2.811036e-29
1.239317e-01 -4.589189e-29
1.241817e-01 -1.191640e-28
1.244317e-01 -1.666814e-28
1.246817e-01 -1.671639e-28
1.249317e-01 -1.110591e-28
1.251817e-01 -6.128795e-30
1.254317e-01 1.217409e-28
1.256817e-01 2.337333e-28
1.259317e-01 2.887216e-28
1.261817e-01 2.567812e-28
1.264317e-01 1.315661e-28
1.266817e-01 -6.288106e-29
1.269317e-01 -2.743018e-28
1.271817e-01 -4.344061e-28
1.274317e-01 -4.788957e-28
1.276817e-01 -3.700595e-28
1.279317e-01 -1.147682e-28
1.281817e-01 2.291450e-28
1.284317e-01 5.625514e-28
1.286817e-01 7.705881e-28
1.289317e-01 7.585271e-28
1.291817e-01 4.877802e-28
1.294317e-01 -1.532250e-31
1.296817e-01 -5.822535e-28
1.299317e-01 -1.079901e-27
1.301817e-01 -1.308638e-27
1.304317e-01 -1.139481e-27
1.306817e-01 -5.532319e-28
1.309317e-01 3.319749e-28
1.311817e-01 1.274351e-27
1.314317e-01 1.966606e-27
1.316817e-01 2.127368e-27
1.319317e-01 1.601257e-27
1.321817e-01 4.353588e-28
1.324317e-01 -1.098258e-27
1.326817e-01 -2.551848e-27
1.329317e-01 -3.420029e-27
1.331817e-01 -3.299604e-27
1.334317e-01 -2.044997e-27
1.336817e-01 1.341221e-28
1.339317e-01 2.676864e-27
1.341817e-01 4.794568e-27
1.344317e-01 5.694285e-27
1.346817e-01 4.845518e-27
1.349317e-01 2.208148e-27
1.351817e-01 -1.662685e-27
1.354317e-01 -5.693064e-27
1.356817e-01 -8.556039e-27
1.359317e-01 -9.072002e-27
1.361817e-01 -6.633496e-27
1.364317e-01 -1.515584e-27
1.366817e-01 5.054063e-27
1.369317e-01 1.113329e-26
1.371817e-01 1.458816e-26
1.374317e-01 1.377628e-26
1.376817e-01 8.189707e-27
1.379317e-01 -1.166652e-27
1.381817e-01 -1.183697e-26
1.384317e-01 -2.047634e-26
1.386817e-01 -2.381415e-26
1.389317e-01 -1.976757e-26
1.391817e-01 -8.357316e-27
1.394317e-01 7.918502e-27
1.396817e-01 2.447630e-26
1.399317e-01 3.581120e-26
1.401817e-01 3.718072e-26
1.404317e-01 2.633516e-26
1.406817e-01 4.720831e-27
1.409317e-01 -2.234332e-26
1.411817e-01 -4.675865e-26
1.414317e-01 -5.986901e-26
1.416817e-01 -5.526683e-26
1.419317e-01 -3.134367e-26
1.421817e-01 7.317070e-27