-1.388183e-01 0.000000e+00
-1.385683e-01 0.000000e+00
-1.383183e-01 0.000000e+00
-1.380683e-01 0.000000e+00
-1.378183e-01 0.000000e+00
-1.375683e-01 0.000000e+00
-1.373183e-01 0.000000e+00
-1.370683e-01 0.000000e+00
-1.368183e-01 0.000000e+00
-1.365683e-01 0.000000e+00
-1.363183e-01 0.000000e+00
-1.360683e-01 0.000000e+00
-1.358183e-01 0.000000e+00
-1.355683e-01 0.000000e+00
-1.353183e-01 0.000000e+00
-1.350683e-01 0.000000e+00
-1.348183e-01 0.000000e+00
-1.345683e-01 0.000000e+00
-1.343183e-01 0.000000e+00
-1.340683e-01 0.000000e+00
-1.338183e-01 0.000000e+00
-1.335683e-01 0.000000e+00
-1.333183e-01 0.000000e+00
-1.330683e-01 0.000000e+00
-1.328183e-01 0.000000e+00
-1.325683e-01 0.000000e+00
-1.323183e-01 0.000000e+00
-1.320683e-01 0.000000e+00
-1.318183e-01 0.000000e+00
-1.315683e-01 0.000000e+00
-1.313183e-01 0.000000e+00
-1.310683e-01 0.000000e+00
-1.308183e-01 0.000000e+00
-1.305683e-01 0.000000e+00
-1.303183e-01 0.000000e+00
-1.300683e-01 0.000000e+00
-1.298183e-01 0.000000e+00
-1.295683e-01 0.000000e+00
-1.293183e-01 0.000000e+00
-1.290683e-01 0.000000e+00
-1.288183e-01 0.000000e+00
-1.285683e-01 0.000000e+00
-1.283183e-01 0.000000e+00
-1.280683e-01 0.000000e+00
-1.278183e-01 0.000000e+00
-1.275683e-01 0.000000e+00
-1.273183e-01 0.000000e+00
-1.270683e-01 0.000000e+00
-1.268183e-01 0.000000e+00
-1.265683e-01 0.000000e+00
-1.263183e-01 0.000000e+00
-1.260683e-01 0.000000e+00
-1.258183e-01 0.000000e+00
-1.255683e-01 0.000000e+00
-1.253183e-01 0.000000e+00
-1.250683e-01 0.000000e+00
-1.248183e-01 0.000000e+00
-1.245683e-01 0.000000e+00
-1.243183e-01 0.000000e+00
-1.240683e-01 0.000000e+00
-1.238183e-01 0.000000e+00
-1.235683e-01 0.000000e+00
-1.233183e-01 0.000000e+00
-1.230683e-01 0.000000e+00
-1.228183e-01 0.000000e+00
-1.225683e-01 0.000000e+00
-1.223183e-01 0.000000e+00
-1.220683e-01 0.000000e+00
-1.218183e-01 0.000000e+00
-1.215683e-01 0.000000e+00
-1.213183e-01 0.000000e+00
-1.210683e-01 0.000000e+00
-1.208183e-01 0.000000e+00
-1.205683e-01 0.000000e+00
-1.203183e-01 -2.802597e-45
-1.200683e-01 -1.121039e-44
-1.198183e-01 -9.809089e-45
-1.195683e-01 8.407791e-45
-1.193183e-01 6.305843e-44
-1.190683e-01 1.555441e-43
-1.188183e-01 2.382207e-43
-1.185683e-01 1.723597e-43
-1.183183e-01 -2.914701e-43
-1.180683e-01 -1.432127e-42
-1.178183e-01 -3.248210e-42
-1.175683e-01 -4.854098e-42
-1.173183e-01 -3.751276e-42
-1.170683e-01 4.433708e-42
-1.168183e-01 2.441062e-41
-1.165683e-01 5.631398e-41
-1.163183e-01 8.656381e-41
-1.160683e-01 7.704199e-41
-1.158183e-01 -3.834093e-41
-1.155683e-01 -3.325407e-40
-1.153183e-01 -8.187156e-40
-1.150683e-01 -1.328955e-39
-1.148183e-01 -1.370904e-39
-1.145683e-01 -7.233643e-41
-1.143183e-01 3.583400e-39
-1.140683e-01 9.987114e-39
-1.138183e-01 1.748803e-38
-1.135683e-01 2.066992e-38
-1.133183e-01 9.473153e-39
-1.130683e-01 -2.871049e-38
-1.128183e-01 -1.013809e-37
-1.125683e-01 -1.963350e-37
-1.123183e-01 -2.629639e-37
-1.120683e-01 -1.999765e-37
-1.118183e-01 1.305607e-37
-1.115683e-01 8.377684e-37
-1.113183e-01 1.868972e-36
-1.110683e-01 2.827705e-36
-1.108183e-01 2.826556e-36
-1.105683e-01 5.412217e-37
-1.103183e-01 -5.312924e-36
-1.100683e-01 -1.491190e-35
-1.098183e-01 -2.574221e-35
-1.095683e-01 -3.108698e-35
-1.093183e-01 -1.982317e-35
-1.090683e-01 2.070269e-35
-1.088183e-01 9.713445e-35
-1.085683e-01 1.978917e-34
-1.083183e-01 2.796928e-34
-1.080683e-01 2.611034e-34
-1.078183e-01 3.584789e-35
-1.075683e-01 -4.810234e-34
-1.073183e-01 -1.269509e-33
-1.070683e-01 -2.099992e-33
-1.068183e-01 -2.456409e-33
-1.065683e-01 -1.569763e-33
-1.063183e-01 1.342168e-33
-1.060683e-01 6.570399e-33
-1.058183e-01 1.320178e-32
-1.055683e-01 1.844878e-32
-1.053183e-01 1.750078e-32
-1.050683e-01 4.520531e-33
-1.048183e-01 -2.470388e-32
-1.045683e-01 -6.848974e-32
-1.043183e-01 -1.144654e-31
-1.040683e-01 -1.367213e-31
-1.038183e-01 -9.852030e-32
-1.035683e-01 3.582655e-32
-1.033183e-01 2.785381e-31
-1.030683e-01 5.891021e-31
-1.028183e-01 8.493513e-31
-1.025683e-01 8.615398e-31
-1.023183e-01 3.911556e-31
-1.020683e-01 -7.307919e-31
-1.018183e-01 -2.452926e-30
-1.015683e-01 -4.339256e-30
-1.013183e-01 -5.480931e-30
-1.010683e-01 -4.598426e-30
-1.008183e-01 -4.370570e-31
-1.005683e-01 7.520198e-30
-1.003183e-01 1.815528e-29
-1.000683e-01 2.797517e-29
-9.981829e-02 3.106041e-29
-9.956829e-02 2.027986e-29
-9.931830e-02 -9.879575e-30
-9.906829e-02 -5.911591e-29
-9.881829e-02 -1.169159e-28
-9.856829e-02 -1.601262e-28
-9.831829e-02 -1.552619e-28
-9.806830e-02 -6.791551e-29
-9.781829e-02 1.203091e-28
-9.756829e-02 3.904992e-28
-9.731829e-02 6.684726e-28
-9.706829e-02 8.217061e-28
-9.681829e-02 6.833827e-28
-9.656829e-02 1.107401e-28
-9.631829e-02 -9.273056e-28
-9.606829e-02 -2.256388e-27
-9.581830e-02 -3.438868e-27
-9.556829e-02 -3.804943e-27
-9.531829e-02 -2.617754e-27
-9.506829e-02 6.178639e-28
-9.481829e-02 5.756736e-27
-9.456830e-02 1.165734e-26
-9.431829e-02 1.606658e-26
-9.406829e-02 1.595594e-26
-9.381829e-02 8.438779e-27
-9.356830e-02 -7.794327e-27
-9.331829e-02 -3.086982e-26
-9.306829e-02 -5.459785e-26
-9.281829e-02 -6.862958e-26
-9.256829e-02 -6.062219e-26
-9.231830e-02 -2.063303e-26
-9.206829e-02 5.292984e-26
-9.181829e-02 1.475863e-25
-9.156829e-02 2.340238e-25
-9.131829e-02 2.692768e-25
-9.106829e-02 2.078590e-25
-9.081829e-02 2.043340e-26
-9.056829e-02 -2.840160e-25
-9.031829e-02 -6.403781e-25
-9.006830e-02 -9.242922e-25
-8.981829e-02 -9.732275e-25
-8.956829e-02 -6.358187e-25
-8.931829e-02 1.566976e-25
-8.906829e-02 1.316101e-24
-8.881830e-02 2.550529e-24
-8.856829e-02 3.380396e-24
-8.831829e-02 3.242984e-24
-8.806829e-02 1.687109e-24
-8.781829e-02 -1.378675e-24
-8.756829e-02 -5.462504e-24
-8.731829e-02 -9.397593e-24
-8.706829e-02 -1.148776e-23
-8.681829e-02 -9.947358e-24
-8.656830e-02 -3.596750e-24
-8.631829e-02 7.351837e-24
-8.606829e-02 2.070181e-23
-8.581829e-02 3.221246e-23
-8.556829e-02 3.635199e-23
-8.531829e-02 2.793820e-23
-8.506829e-02 4.409850e-24
-8.481829e-02 -3.190897e-23
-8.456829e-02 -7.248073e-23
-8.431830e-02 -1.031345e-22
-8.406829e-02 -1.071871e-22
-8.381829e-02 -7.098814e-23
-8.356829e-02 9.268213e-24
-8.331829e-02 1.216472e-22
-8.306830e-02 2.362689e-22
-8.281829e-02 3.092923e-22
-8.256829e-02 2.941781e-22
-8.231829e-02 1.588672e-22
-8.206829e-02 -9.543568e-23
-8.181829e-02 -4.206513e-22
-8.156829e-02 -7.209470e-22
-8.131829e-02 -8.702411e-22
-8.106829e-02 -7.487880e-22
-8.081830e-02 -2.922865e-22
-8.056829e-02 4.606593e-22
-8.031829e-02 1.341959e-21
-8.006829e-02 2.067073e-21
-7.981829e-02 2.298334e-21
-7.956829e-02 1.753745e-21
-7.931829e-02 3.368586e-22
-7.906829e-02 -1.754377e-21
-7.881829e-02 -3.989940e-21
-7.856829e-02 -5.582960e-21
-7.831829e-02 -5.691736e-21
-7.806829e-02 -3.718695e-21
-7.781829e-02 3.720648e-22
-7.756829e-02 5.833226e-21
-7.731830e-02 1.112865e-20
-7.706829e-02 1.422477e-20
-7.681829e-02 1.317574e-20
-7.656829e-02 6.885999e-21
-7.631829e-02 -4.175585e-21
-7.606829e-02 -1.759746e-20
-7.581829e-02 -2.924422e-20
-7.556829e-02 -3.419875e-20
-7.531829e-02 -2.832402e-20
-7.506829e-02 -1.007079e-20
-7.481829e-02 1.806334e-20
-7.456829e-02 4.908885e-20
-7.431829e-02 7.260199e-20
-7.406829e-02 7.749271e-20
-7.381829e-02 5.581455e-20
-7.356829e-02 6.758784e-21
-7.331829e-02 -6.071212e-20
-7.306829e-02 -1.279868e-19
-7.281829e-02 -1.705295e-19
-7.256829e-02 -1.649851e-19
-7.231829e-02 -9.811348e-20
-7.206829e-02 2.516566e-20
-7.181829e-02 1.778694e-19
-7.156829e-02 3.139213e-19
-7.131829e-02 3.790385e-19
-7.106829e-02 3.279765e-19
-7.081829e-02 1.437522e-19
-7.056829e-02 -1.476032e-19
-7.031829e-02 -4.735153e-19
-7.006829e-02 -7.272266e-19
-6.981829e-02 -7.962764e-19
-6.956829e-02 -6.014905e-19
-6.931829e-02 -1.353686e-19
-6.906829e-02 5.142803e-19
-6.881829e-02 1.168343e-18
-6.856829e-02 1.594587e-18
-6.831829e-02 1.575984e-18
-6.806829e-02 9.930310e-19
-6.781829e-02 -1.057726e-19
-6.756829e-02 -1.474111e-18
-6.731829e-02 -2.700854e-18
-6.706829e-02 -3.311460e-18
-6.681829e-02 -2.920148e-18
-6.656829e-02 -1.392006e-18
-6.631829e-02 1.040551e-18
-6.606829e-02 3.761219e-18
-6.581829e-02 5.886031e-18
-6.556829e-02 6.506303e-18
-6.531829e-02 5.005056e-18
-6.506829e-02 1.353133e-18
-6.481829e-02 -3.726193e-18
-6.456829e-02 -8.817314e-18
-6.431829e-02 -1.213410e-17
-6.406829e-02 -1.205637e-17
-6.381829e-02 -7.745105e-18
-6.356829e-02 3.623290e-19
-6.331829e-02 1.038349e-17
-6.306829e-02 1.929096e-17
-6.281829e-02 2.369249e-17
-6.256829e-02 2.093412e-17
-6.231829e-02 1.021598e-17
-6.206829e-02 -6.671262e-18
-6.181829e-02 -2.534229e-17
-6.156829e-02 -3.972549e-17
-6.131829e-02 -4.378384e-17
-6.106829e-02 -3.363740e-17
-6.081829e-02 -9.435500e-18
-6.056829e-02 2.373970e-17
-6.031829e-02 5.648552e-17
-6.006829e-02 7.734789e-17
-5.981829e-02 7.633848e-17
-5.956829e-02 4.875550e-17
-5.931829e-02 -1.960461e-18
-5.906829e-02 -6.355806e-17
-5.881829e-02 -1.172279e-16
-5.856829e-02 -1.426524e-16
-5.831829e-02 -1.247203e-16
-5.806829e-02 -5.993588e-17
-5.781829e-02 3.978249e-17
-5.756829e-02 1.478168e-16
-5.731829e-02 2.288265e-16
-5.706829e-02 2.490636e-16
-5.681829e-02 1.883848e-16
-5.656829e-02 5.015643e-17
-5.631829e-02 -1.348440e-16
-5.606829e-02 -3.131729e-16
-5.581829e-02 -4.223139e-16
-5.556829e-02 -4.102895e-16
-5.531829e-02 -2.557727e-16
-5.506829e-02 1.815577e-17
-5.481829e-02 3.426875e-16
-5.456829e-02 6.174456e-16
-5.431829e-02 7.384346e-16
-5.406829e-02 6.329715e-16
-5.381829e-02 2.909858e-16
-5.356829e-02 -2.188349e-16
-5.331829e-02 -7.566774e-16
-5.306829e-02 -1.145168e-15
-5.281829e-02 -1.222522e-15
-5.256829e-02 -9.009155e-16
-5.231829e-02 -2.110654e-16
-5.206829e-02 6.849775e-16
-5.181829e-02 1.523448e-15
-5.156829e-02 2.008998e-15
-5.131829e-02 1.909187e-15
-5.106829e-02 1.145677e-15
-5.081829e-02 -1.496615e-16
-5.056829e-02 -1.639617e-15
-5.031829e-02 -2.857358e-15
-5.006829e-02 -3.340549e-15
-4.981829e-02 -2.789057e-15
-4.956829e-02 -1.196927e-15
-4.931829e-02 1.091136e-15
-4.906829e-02 3.431919e-15
-4.881829e-02 5.046731e-15
-4.856829e-02 5.260121e-15
-4.831829e-02 3.746965e-15
-4.806829e-02 7.055038e-16
-4.781829e-02 -3.115675e-15
-4.756829e-02 -6.572045e-15
-4.731829e-02 -8.438865e-15
-4.706829e-02 -7.809873e-15
-4.681829e-02 -4.458596e-15
-4.656829e-02 9.665302e-16
-4.631829e-02 7.008178e-15
-4.606829e-02 1.175029e-14
-4.581829e-02 1.338319e-14
-4.556829e-02 1.082977e-14
-4.531829e-02 4.232049e-15
-4.506829e-02 -4.889820e-15
-4.481829e-02 -1.391490e-14
-4.456829e-02 -1.981535e-14
-4.431829e-02 -2.010291e-14
-4.406829e-02 -1.375183e-14
-4.381829e-02 -1.783886e-15
-4.356829e-02 1.273664e-14
-4.331829e-02 2.539321e-14
-4.306829e-02 3.167260e-14
-4.281829e-02 2.845664e-14
-4.256829e-02 1.528782e-14
-4.231829e-02 -5.051287e-15
-4.206829e-02 -2.694890e-14
-4.181829e-02 -4.338510e-14
-4.156829e-02 -4.804775e-14
-4.131829e-02 -3.754535e-14
-4.106829e-02 -1.299238e-14
-4.081829e-02 1.966009e-14
-4.056829e-02 5.085372e-14
-4.031829e-02 7.004302e-14
-4.006829e-02 6.904608e-14
-3.981829e-02 4.512098e-14
-3.956829e-02 2.701324e-15
-3.931829e-02 -4.699020e-14
-3.906829e-02 -8.864100e-14
-3.881829e-02 -1.073096e-13
-3.856829e-02 -9.342845e-14
-3.831829e-02 -4.676578e-14
-3.806829e-02 2.212186e-14
-3.781829e-02 9.379829e-14
-3.756829e-02 1.450756e-13
-3.731829e-02 1.561290e-13
-3.706829e-02 1.175280e-13
-3.681829e-02 3.484314e-14
-3.656829e-02 -7.104611e-14
-3.631829e-02 -1.686564e-13
-3.606829e-02 -2.247744e-13
-3.581829e-02 -2.151534e-13
-3.556829e-02 -1.337548e-13
-3.531829e-02 2.723713e-15
-3.506829e-02 1.571836e-13
-3.481829e-02 2.815046e-13
-3.456829e-02 3.308453e-13
-3.431829e-02 2.788238e-13
-3.406829e-02 1.286949e-13
-3.381829e-02 -8.370157e-14
-3.356829e-02 -2.973052e-13
-3.331829e-02 -4.424764e-13
-3.306829e-02 -4.626806e-13
-3.281829e-02 -3.347558e-13
-3.256829e-02 -8.091477e-14
-3.231829e-02 2.325547e-13
-3.206829e-02 5.112103e-13
-3.181829e-02 6.596804e-13
-3.156829e-02 6.127321e-13
-3.131829e-02 3.604857e-13
-3.106829e-02 -4.124179e-14
-3.081829e-02 -4.807635e-13
-3.056829e-02 -8.198732e-13
-3.031829e-02 -9.355871e-13
-3.006829e-02 -7.621805e-13
-2.981829e-02 -3.198045e-13
-2.956829e-02 2.813577e-13
-2.931829e-02 8.657980e-13
-2.906829e-02 1.241760e-12
-2.881829e-02 1.261657e-12
-2.856829e-02 8.755117e-13
-2.831829e-02 1.591012e-13
-2.806829e-02 -6.954193e-13
-2.781828e-02 -1.427919e-12
-2.756829e-02 -1.786628e-12
-2.731829e-02 -1.610891e-12
-2.706829e-02 -8.941457e-13
-2.681829e-02 1.957128e-13
-2.656829e-02 1.350245e-12
-2.631829e-02 2.203998e-12
-2.606829e-02 2.446291e-12
-2.581829e-02 1.928211e-12
-2.556829e-02 7.295020e-13
-2.531829e-02 -8.410021e-13
-2.506829e-02 -2.319139e-12
-2.481829e-02 -3.217913e-12
-2.456829e-02 -3.182397e-12
-2.431829e-02 -2.119323e-12
-2.406829e-02 -2.565278e-13
-2.381829e-02 1.894868e-12
-2.356829e-02 3.674118e-12
-2.331829e-02 4.467664e-12
-2.306829e-02 3.912350e-12
-2.281829e-02 2.039977e-12
-2.256829e-02 -6.899819e-13
-2.231829e-02 -3.492224e-12
-2.206829e-02 -5.473654e-12
-2.181829e-02 -5.909633e-12
-2.156829e-02 -4.495443e-12
-2.131829e-02 -1.489085e-12
-2.106829e-02 2.312207e-12
-2.081829e-02 5.771728e-12
-2.056829e-02 7.743407e-12
-2.031828e-02 7.439442e-12
-2.006829e-02 4.720837e-12
-1.981829e-02 2.092125e-13
-1.956829e-02 -4.834543e-12
-1.931829e-02 -8.849650e-12
-1.906829e-02 -1.044584e-11
-1.881829e-02 -8.866749e-12
-1.856828e-02 -4.296498e-12
-1.831829e-02 2.104821e-12
-1.806829e-02 8.475363e-12
-1.781829e-02 1.277812e-11
-1.756829e-02 1.343580e-11
-1.731829e-02 9.880768e-12
-1.706829e-02 2.835370e-12
-1.681828e-02 -5.793747e-12
-1.656829e-02 -1.341067e-11
-1.631829e-02 -1.749356e-11
-1.606829e-02 -1.640726e-11
-1.581829e-02 -1.000970e-11
-1.556829e-02 1.618751e-13
-1.531829e-02 1.122397e-11
-1.506829e-02 1.974142e-11
-1.481829e-02 2.277211e-11
-1.456829e-02 1.885101e-11
-1.431829e-02 8.592972e-12
-1.406829e-02 -5.313409e-12
-1.381829e-02 -1.877463e-11
-1.356828e-02 -2.747030e-11
-1.331829e-02 -2.820991e-11
-1.306829e-02 -2.005109e-11
-1.281829e-02 -4.800563e-12
-1.256830e-02 1.331720e-11
-1.231828e-02 2.879184e-11
-1.206829e-02 3.646902e-11
-1.181829e-02 3.322327e-11
-1.156829e-02 1.913084e-11
-1.131828e-02 -2.275295e-12
-1.106828e-02 -2.482931e-11
-1.081829e-02 -4.146597e-11
-1.056829e-02 -4.638974e-11
-1.031829e-02 -3.702589e-11
-1.006828e-02 -1.511384e-11
-9.818286e-03 1.347814e-11
-9.568289e-03 4.026578e-11
-9.318292e-03 5.661965e-11
-9.068280e-03 5.648869e-11
-8.818284e-03 3.853191e-11
-8.568287e-03 6.932517e-12
-8.318290e-03 -2.947207e-11
-8.068293e-03 -5.960572e-11
-7.818282e-03 -7.347346e-11
-7.568285e-03 -6.540624e-11
-7.318288e-03 -3.619584e-11
-7.068291e-03 6.644204e-12
-6.818295e-03 5.072238e-11
-6.568283e-03 8.229842e-11
-6.318286e-03 9.051218e-11
-6.068289e-03 7.102777e-11
-5.818292e-03 2.789513e-11
-5.568281e-03 -2.709553e-11
-5.318284e-03 -7.755222e-11
-5.068287e-03 -1.073071e-10
-4.818290e-03 -1.055303e-10
-4.568294e-03 -7.053480e-11
-4.318282e-03 -1.097415e-11
-4.068285e-03 5.613944e-11
-3.818288e-03 1.102008e-10
-3.568292e-03 1.332577e-10
-3.318280e-03 1.158687e-10
-3.068283e-03 6.069296e-11
-2.818286e-03 -1.748746e-11
-2.568290e-03 -9.557426e-11
-2.318293e-03 -1.488599e-10
-2.068281e-03 -1.587205e-10
-1.818284e-03 -1.189333e-10
-1.568288e-03 -3.852507e-11
-1.318291e-03 5.999359e-11
-1.068294e-03 1.467753e-10
-8.182824e-04 1.935312e-10
-5.682856e-04 1.825599e-10
-3.182888e-04 1.130735e-10
-6.829202e-05 2.638887e-12
1.817197e-04 -1.170545e-10
4.317164e-04 -2.091574e-10
6.817132e-04 -2.428565e-10
9.317100e-04 -2.034377e-10
1.181707e-03 -9.797963e-11
1.431718e-03 4.539454e-11
1.681715e-03 1.848961e-10
1.931712e-03 2.771972e-10
2.181709e-03 2.908118e-10
2.431706e-03 2.166253e-10
2.681717e-03 7.209897e-11
2.931714e-03 -1.025513e-10
3.181711e-03 -2.554975e-10
3.431708e-03 -3.387176e-10
3.681719e-03 -3.231231e-10
3.931716e-03 -2.086479e-10
4.181713e-03 -2.585101e-11
4.431710e-03 1.719584e-10
4.681706e-03 3.241445e-10
4.931718e-03 3.813144e-10
5.181715e-03 3.213842e-10
5.431712e-03 1.579604e-10
5.681708e-03 -6.203232e-11
5.931720e-03 -2.713369e-10
6.181717e-03 -4.024804e-10
6.431714e-03 -4.090985e-10
6.681710e-03 -2.818248e-10
6.931707e-03 -5.343295e-11
7.181719e-03 2.090091e-10
7.431716e-03 4.232565e-10
7.681713e-03 5.169263e-10
7.931709e-03 4.509406e-10
8.181706e-03 2.339308e-10
8.431718e-03 -7.743308e-11
8.681715e-03 -3.931019e-10
8.931711e-03 -6.155776e-10
9.181708e-03 -6.696720e-10
9.431720e-03 -5.270513e-10
9.681717e-03 -2.176622e-10
9.931713e-03 1.762042e-10
1.018171e-02 5.422787e-10
1.043171e-02 7.710286e-10
1.068172e-02 7.891255e-10
1.093172e-02 5.833656e-10
1.118171e-02 2.072101e-10
1.143171e-02 -2.328635e-10
1.168172e-02 -6.078765e-10
1.193172e-02 -8.050222e-10
1.218171e-02 -7.628616e-10
1.243171e-02 -4.919818e-10
1.268171e-02 -7.408704e-11
1.293172e-02 3.610892e-10
1.318172e-02 6.747773e-10
1.343171e-02 7.625590e-10
1.368171e-02 5.887611e-10
1.393171e-02 2.006927e-10
1.418172e-02 -2.826322e-10
1.443172e-02 -7.049037e-10
1.468171e-02 -9.203350e-10
1.493171e-02 -8.405373e-10
1.518172e-02 -4.657434e-10
1.543172e-02 1.101130e-10
1.568171e-02 7.232916e-10
1.593171e-02 1.187047e-09
1.618171e-02 1.347900e-09
1.643172e-02 1.134408e-09
1.668172e-02 5.830784e-10
1.693171e-02 -1.675395e-10
1.718171e-02 -9.140456e-10
1.743171e-02 -1.446502e-09
1.768172e-02 -1.610787e-09
1.793171e-02 -1.356061e-09
1.818171e-02 -7.523331e-10
1.843171e-02 2.818334e-11
1.868172e-02 7.612547e-10
1.893172e-02 1.237806e-09
1.918171e-02 1.327833e-09
1.943171e-02 1.021163e-09
1.968171e-02 4.317855e-10
1.993172e-02 -2.366192e-10
2.018172e-02 -7.542704e-10
2.043171e-02 -9.389035e-10
2.068171e-02 -7.165284e-10
2.093172e-02 -1.496960e-10
2.118172e-02 5.768899e-10
2.143171e-02 1.210564e-09
2.168171e-02 1.509254e-09
2.193171e-02 1.320732e-09
2.218172e-02 6.377172e-10
2.243172e-02 -3.895060e-10
2.268171e-02 -1.488872e-09
2.293171e-02 -2.341842e-09
2.318171e-02 -2.676872e-09
2.343172e-02 -2.353363e-09
2.368172e-02 -1.410074e-09
2.393171e-02 -6.220136e-11
2.418171e-02 1.353843e-09
2.443172e-02 2.472994e-09
2.468172e-02 3.004858e-09
2.493171e-02 2.817258e-09
2.518171e-02 1.974797e-09
2.543171e-02 7.203109e-10
2.568172e-02 -5.960046e-10
2.593172e-02 -1.618991e-09
2.618171e-02 -2.092000e-09
2.643171e-02 -1.930348e-09
2.668172e-02 -1.242228e-09
2.693172e-02 -2.909029e-10
2.718171e-02 5.904282e-10
2.743171e-02 1.104904e-09
2.768171e-02 1.086418e-09
2.793172e-02 5.525145e-10
2.818172e-02 -3.010290e-10
2.843171e-02 -1.163084e-09
2.868171e-02 -1.708045e-09
2.893171e-02 -1.703608e-09
2.918172e-02 -1.091033e-09
2.943172e-02 -1.168754e-11
2.968171e-02 1.229798e-09
2.993171e-02 2.255977e-09
3.018172e-02 2.733661e-09
3.043172e-02 2.481395e-09
3.068171e-02 1.533337e-09
3.093171e-02 1.382521e-10
3.118171e-02 -1.308419e-09
3.143172e-02 -2.380228e-09
3.168172e-02 -2.748941e-09
3.193171e-02 -2.288289e-09
3.218171e-02 -1.119107e-09
3.243172e-02 4.187273e-10
3.268172e-02 1.861927e-09
3.293172e-02 2.758875e-09
3.318171e-02 2.805132e-09
3.343171e-02 1.938320e-09
3.368172e-02 3.635936e-10
3.393172e-02 -1.499332e-09
3.418171e-02 -3.132682e-09
3.443171e-02 -4.067250e-09
3.468171e-02 -4.016007e-09
3.493172e-02 -2.956357e-09
3.518172e-02 -1.135994e-09
3.543171e-02 9.972876e-10
3.568171e-02 2.922498e-09
3.593172e-02 4.189342e-09
3.618172e-02 4.537847e-09
3.643171e-02 3.959636e-09
3.668171e-02 2.683572e-09
3.693171e-02 1.094286e-09
3.718172e-02 -3.909921e-10
3.743172e-02 -1.447152e-09
3.768171e-02 -1.928939e-09
3.793171e-02 -1.897345e-09
3.818171e-02 -1.576481e-09
3.843172e-02 -1.258776e-09
3.868172e-02 -1.190358e-09
3.893171e-02 -1.475065e-09
3.918171e-02 -2.029783e-09
3.943172e-02 -2.605738e-09
3.968172e-02 -2.870983e-09
3.993171e-02 -2.527528e-09
4.018171e-02 -1.425015e-09
4.043171e-02 3.650165e-10
4.068172e-02 2.541832e-09
4.093172e-02 4.639951e-09
4.118171e-02 6.147307e-09
4.143171e-02 6.646822e-09
4.168172e-02 5.935693e-09
4.193172e-02 4.090417e-09
4.218172e-02 1.455724e-09
4.243171e-02 -1.439311e-09
4.268171e-02 -4.013927e-09
4.293172e-02 -5.780834e-09
4.318172e-02 -6.462123e-09
4.343171e-02 -6.043372e-09
4.368171e-02 -4.756437e-09
4.393171e-02 -2.996003e-09
4.418172e-02 -1.198082e-09
4.443172e-02 2.802736e-10
4.468171e-02 1.248956e-09
4.493171e-02 1.712216e-09
4.518172e-02 1.836632e-09
4.543172e-02 1.867882e-09
4.568172e-02 2.031193e-09
4.593171e-02 2.443699e-09
4.618171e-02 3.069687e-09
4.643172e-02 3.728630e-09
4.668172e-02 4.153875e-09
4.693171e-02 4.083887e-09
4.718171e-02 3.348944e-09
4.743172e-02 1.936826e-09
4.768172e-02 7.133849e-12
4.793172e-02 -2.142585e-09
4.818171e-02 -4.148703e-09
4.843171e-02 -5.672220e-09
4.868172e-02 -6.476398e-09
4.893172e-02 -6.473314e-09
4.918171e-02 -5.728580e-09
4.943171e-02 -4.423228e-09
4.968171e-02 -2.792589e-09
4.993172e-02 -1.062659e-09
5.018172e-02 6.000533e-10
5.043171e-02 2.104642e-09
5.068171e-02 3.424219e-09
5.093172e-02 4.556853e-09
5.118172e-02 5.484537e-09
5.143172e-02 6.144973e-09
5.168171e-02 6.425893e-09
5.193171e-02 6.192778e-09
5.218172e-02 5.330520e-09
5.243172e-02 3.800096e-09
5.268171e-02 1.671651e-09
5.293171e-02 -8.585630e-10
5.318171e-02 -3.492659e-09
5.343172e-02 -5.881816e-09
5.368172e-02 -7.689238e-09
5.393171e-02 -8.659470e-09
5.418171e-02 -8.663420e-09
5.443172e-02 -7.714476e-09
5.468172e-02 -5.957844e-09
5.493172e-02 -3.629538e-09
5.518171e-02 -1.006129e-09
5.543171e-02 1.638256e-09
5.568172e-02 4.066266e-09
5.593172e-02 6.086907e-09
5.618171e-02 7.559152e-09
5.643171e-02 8.377526e-09
5.668172e-02 8.467168e-09
5.693172e-02 7.789936e-09
5.718172e-02 6.361802e-09
5.743171e-02 4.257572e-09
5.768171e-02 1.644935e-09
5.793172e-02 -1.229182e-09
5.818172e-02 -4.053277e-09
5.843171e-02 -6.499306e-09
5.868171e-02 -8.265317e-09
5.893171e-02 -9.139455e-09
5.918172e-02 -9.039184e-09
5.943172e-02 -8.017366e-09
5.968171e-02 -6.243909e-09
5.993171e-02 -3.967727e-09
6.018172e-02 -1.463604e-09
6.043172e-02 1.030003e-09
6.068172e-02 3.321645e-09
6.093171e-02 5.291952e-09
6.118171e-02 6.869357e-09
6.143172e-02 7.991616e-09
6.168172e-02 8.582674e-09
6.193171e-02 8.539018e-09
6.218171e-02 7.739914e-09
6.243172e-02 6.106461e-09
6.268172e-02 3.637069e-09
6.293172e-02 4.738467e-10
6.318171e-02 -3.091145e-09
6.343171e-02 -6.620326e-09
6.368172e-02 -9.615064e-09
6.393172e-02 -1.157264e-08
6.418172e-02 -1.212459e-08
6.443171e-02 -1.110914e-08
6.468171e-02 -8.624625e-09
6.493172e-02 -5.019842e-09
6.518172e-02 -8.358256e-10
6.543171e-02 3.315449e-09
6.568171e-02 6.860319e-09
6.593172e-02 9.364953e-09
6.618172e-02 1.059675e-08
6.643172e-02 1.054150e-08
6.668171e-02 9.370865e-09
6.693171e-02 7.377821e-09
6.718172e-02 4.882509e-09
6.743172e-02 2.151410e-09
6.768171e-02 -5.942411e-10
6.793171e-02 -3.213245e-09
6.818172e-02 -5.582478e-09
6.843172e-02 -7.602466e-09
6.868172e-02 -9.116548e-09
6.893171e-02 -9.958740e-09
6.918171e-02 -9.940095e-09
6.943172e-02 -8.918505e-09
6.968172e-02 -6.898063e-09
6.993172e-02 -3.989499e-09
7.018171e-02 -4.854428e-10
7.043171e-02 3.167088e-09
7.068172e-02 6.476284e-09
7.093172e-02 8.955794e-09
7.118171e-02 1.026910e-08
7.143171e-02 1.024910e-08
7.168172e-02 8.989446e-09
7.193172e-02 6.768460e-09
7.218172e-02 3.956984e-09
7.243171e-02 1.027956e-09
7.268171e-02 -1.650733e-09
7.293172e-02 -3.816012e-09
7.318172e-02 -5.343281e-09
7.343172e-02 -6.251639e-09
7.368171e-02 -6.628625e-09
7.393171e-02 -6.618166e-09
7.418172e-02 -6.314394e-09
7.443172e-02 -5.741640e-09
7.468171e-02 -4.888534e-09
7.493171e-02 -3.718014e-09
7.518172e-02 -2.228262e-09
7.543172e-02 -4.879439e-10
7.568172e-02 1.350145e-09
7.593171e-02 3.052264e-09
7.618171e-02 4.393769e-09
7.643172e-02 5.135007e-09
7.668172e-02 5.160473e-09
7.693172e-02 4.446974e-09
7.718171e-02 3.147761e-09
7.743172e-02 1.464286e-09
7.768172e-02 -2.792149e-10
7.793172e-02 -1.771696e-09
7.818171e-02 -2.793968e-09
7.843171e-02 -3.213245e-09
7.868172e-02 -3.022251e-09
7.893172e-02 -2.370143e-09
7.918172e-02 -1.366971e-09
7.943171e-02 -2.164597e-10
7.968171e-02 8.985808e-10
7.993172e-02 1.809440e-09
8.018172e-02 2.328306e-09
8.043171e-02 2.465640e-09
8.068171e-02 2.067736e-09
8.093172e-02 1.199169e-09
8.118172e-02 -1.468834e-10
8.143172e-02 -1.858098e-09
8.168171e-02 -3.785772e-09
8.193171e-02 -5.672064e-09
8.218172e-02 -7.299150e-09
8.243172e-02 -8.386451e-09
8.268172e-02 -8.644747e-09
8.293171e-02 -7.932613e-09
8.318172e-02 -6.228220e-09
8.343172e-02 -3.671630e-09
8.368172e-02 -5.211405e-10
8.393171e-02 2.810339e-09
8.418171e-02 5.937181e-09
8.443172e-02 8.395546e-09
8.468172e-02 9.983523e-09
8.493172e-02 1.054741e-08
8.518171e-02 1.010085e-08
8.543171e-02 8.726602e-09
8.568172e-02 6.612026e-09
8.593172e-02 3.962668e-09
8.618172e-02 1.038643e-09
8.643171e-02 -2.020897e-09
8.668172e-02 -5.070433e-09
8.693172e-02 -7.869858e-09
8.718172e-02 -1.034186e-08
8.743171e-02 -1.220087e-08
8.768171e-02 -1.321132e-08
8.793172e-02 -1.328590e-08
8.818172e-02 -1.226999e-08
8.843172e-02 -1.023000e-08
8.868171e-02 -7.241397e-09
8.893172e-02 -3.744390e-09
8.918172e-02 -2.819434e-11
8.943172e-02 3.455170e-09
8.968171e-02 6.300070e-09
8.993171e-02 8.190909e-09
9.018172e-02 9.047653e-09
9.043172e-02 8.875759e-09
9.068172e-02 8.009920e-09
9.093171e-02 6.561095e-09
9.118171e-02 4.959475e-09
9.143172e-02 3.278728e-09
9.168172e-02 1.838998e-09
9.193172e-02 5.356924e-10
9.218171e-02 -6.057235e-10
9.243172e-02 -1.620720e-09
9.268172e-02 -2.784873e-09
9.293172e-02 -4.089088e-09
9.318171e-02 -5.327820e-09
9.343171e-02 -6.444679e-09
9.368172e-02 -7.179551e-09
9.393172e-02 -7.534254e-09
9.418172e-02 -7.348717e-09
9.443171e-02 -6.770279e-09
9.468171e-02 -5.960828e-09
9.493172e-02 -5.122274e-09
9.518172e-02 -4.507456e-09
9.543172e-02 -4.059984e-09
9.568171e-02 -3.808964e-09
9.593172e-02 -3.334208e-09
9.618172e-02 -2.710294e-09
9.643172e-02 -1.675289e-09
9.668171e-02 -3.074092e-10
9.693171e-02 1.535227e-09
9.718172e-02 3.623427e-09
9.743172e-02 5.560651e-09
9.768172e-02 7.124981e-09
9.793171e-02 8.074494e-09
9.818172e-02 8.241841e-09
9.843172e-02 7.719791e-09
9.868172e-02 6.388291e-09
9.893171e-02 4.498361e-09
9.918171e-02 2.384695e-09
9.943172e-02 -1.127773e-10
9.968172e-02 -2.746674e-09
9.993172e-02 -5.533366e-09
1.001817e-01 -7.785275e-09
1.004317e-01 -9.667929e-09
1.006817e-01 -1.106309e-08
1.009317e-01 -1.166154e-08
1.011817e-01 -1.161243e-08
1.014317e-01 -1.070111e-08
1.016817e-01 -9.340511e-09
1.019317e-01 -7.701601e-09
1.021817e-01 -6.109985e-09
1.024317e-01 -4.441972e-09
1.026817e-01 -2.663000e-09
1.029317e-01 -8.567440e-10
1.031817e-01 1.209628e-09
1.034317e-01 3.426976e-09
1.036817e-01 5.793481e-09
1.039317e-01 7.636118e-09
1.041817e-01 8.643838e-09
1.044317e-01 8.978532e-09
1.046817e-01 8.139978e-09
1.049317e-01 6.351911e-09
1.051817e-01 3.949026e-09
1.054317e-01 1.247827e-09
1.056817e-01 -1.360604e-09
1.059317e-01 -3.426976e-09
1.061817e-01 -4.880349e-09
1.064317e-01 -5.587935e-09
1.066817e-01 -5.755282e-09
1.069317e-01 -5.475158e-09
1.071817e-01 -5.085894e-09
1.074317e-01 -4.823960e-09
1.076817e-01 -4.394678e-09
1.079317e-01 -4.003596e-09
1.081817e-01 -3.465175e-09
1.084317e-01 -3.185050e-09
1.086817e-01 -2.868546e-09
1.089317e-01 -2.848537e-09
1.091817e-01 -2.904926e-09
1.094317e-01 -3.110472e-09
1.096817e-01 -3.092282e-09
1.099317e-01 -3.017703e-09
1.101817e-01 -2.701199e-09
1.104317e-01 -2.459274e-09
1.106817e-01 -2.140951e-09
1.109317e-01 -1.584340e-09
1.111817e-01 -1.060471e-09
1.114317e-01 -6.712071e-10
1.116817e-01 -7.457857e-11
1.119317e-01 5.220500e-10
1.121817e-01 1.340595e-09
1.124317e-01 2.439265e-09
1.126817e-01 4.209141e-09
1.129317e-01 5.848051e-09
1.131817e-01 7.543349e-09
1.134317e-01 8.196366e-09
1.136817e-01 7.581548e-09
1.139317e-01 5.346010e-09
1.141817e-01 2.533852e-09
1.144317e-01 -8.385541e-10
1.146817e-01 -3.967216e-09
1.149317e-01 -6.109985e-09
1.151817e-01 -7.059498e-09
1.154317e-01 -6.797563e-09
1.156817e-01 -6.182745e-09
1.159317e-01 -5.587935e-09
1.161817e-01 -5.531547e-09
1.164317e-01 -6.033588e-09
1.166817e-01 -7.170456e-09
1.169317e-01 -8.307325e-09
1.171817e-01 -8.903953e-09
1.174317e-01 -7.916242e-09
1.176817e-01 -5.384209e-09
1.179317e-01 -1.919034e-09
1.181817e-01 2.310117e-09
1.184317e-01 6.277332e-09
1.186817e-01 9.165888e-09
1.189317e-01 1.052467e-08
1.191817e-01 9.815267e-09
1.194317e-01 8.345523e-09
1.196817e-01 6.239134e-09
1.199317e-01 4.414687e-09
1.201817e-01 3.205059e-09
1.204317e-01 3.259629e-09
1.206817e-01 3.596142e-09
1.209317e-01 3.930836e-09
1.211817e-01 3.854439e-09
1.214317e-01 2.663000e-09
1.216817e-01 5.766196e-10
1.219317e-01 -1.806256e-09
1.221817e-01 -4.376489e-09
1.224317e-01 -6.501068e-09
1.226817e-01 -7.692506e-09
1.229317e-01 -7.767085e-09
1.231817e-01 -6.705704e-09
1.234317e-01 -4.563844e-09
1.236817e-01 -2.421984e-09
1.239317e-01 -3.346941e-10
1.241817e-01 1.099579e-09
1.244317e-01 1.844455e-09
1.246817e-01 2.309207e-09
1.249317e-01 2.402885e-09
1.251817e-01 2.254637e-09
1.254317e-01 2.440174e-09
1.256817e-01 2.607521e-09
1.259317e-01 3.426976e-09
1.261817e-01 4.563390e-09
1.264317e-01 5.606580e-09
1.266817e-01 6.351456e-09
1.269317e-01 6.314167e-09
1.271817e-01 5.885795e-09
1.274317e-01 4.917638e-09
1.276817e-01 3.911509e-09
1.279317e-01 2.886964e-09
1.281817e-01 2.067509e-09
1.284317e-01 1.825356e-09
1.286817e-01 1.881290e-09
1.289317e-01 2.235176e-09
1.291817e-01 2.756678e-09
1.294317e-01 3.036121e-09
1.296817e-01 3.110699e-09
1.299317e-01 3.427203e-09
1.301817e-01 3.613650e-09
1.304317e-01 3.334208e-09
1.306817e-01 2.756678e-09
1.309317e-01 1.676199e-09
1.311817e-01 3.910827e-10
1.314317e-01 -6.521077e-10
1.316817e-01 -1.564331e-09
1.319317e-01 -1.416083e-09
1.321817e-01 -9.122232e-10
1.324317e-01 1.491571e-10
1.326817e-01 1.546141e-09
1.329317e-01 2.198249e-09
1.331817e-01 2.868546e-09
1.334317e-01 2.924935e-09
1.336817e-01 2.682100e-09
1.339317e-01 2.346496e-09
1.341817e-01 2.513843e-09
1.344317e-01 3.314199e-09
1.346817e-01 4.953108e-09
1.349317e-01 7.097697e-09
1.351817e-01 8.976713e-09
1.354317e-01 1.067383e-08
1.356817e-01 1.143599e-08
1.359317e-01 1.145418e-08
1.361817e-01 1.016997e-08
1.364317e-01 8.196366e-09
1.366817e-01 6.426490e-09
1.369317e-01 5.271431e-09
1.371817e-01 5.047696e-09
1.374317e-01 5.327820e-09
1.376817e-01 5.662514e-09
1.379317e-01 5.587935e-09
1.381817e-01 5.158654e-09
1.384317e-01 3.743480e-09
1.386817e-01 2.084562e-09
1.389317e-01 7.275958e-11