-1.388183e-01 0.000000e+00
-1.385683e-01 0.000000e+00
-1.383183e-01 0.000000e+00
-1.380683e-01 0.000000e+00
-1.378183e-01 0.000000e+00
-1.375683e-01 0.000000e+00
-1.373183e-01 0.000000e+00
-1.370683e-01 0.000000e+00
-1.368183e-01 0.000000e+00
-1.365683e-01 0.000000e+00
-1.363183e-01 0.000000e+00
-1.360683e-01 0.000000e+00
-1.358183e-01 0.000000e+00
-1.355683e-01 0.000000e+00
-1.353183e-01 0.000000e+00
-1.350683e-01 0.000000e+00
-1.348183e-01 0.000000e+00
-1.345683e-01 0.000000e+00
-1.343183e-01 0.000000e+00
-1.340683e-01 0.000000e+00
-1.338183e-01 0.000000e+00
-1.335683e-01 0.000000e+00
-1.333183e-01 0.000000e+00
-1.330683e-01 0.000000e+00
-1.328183e-01 0.000000e+00
-1.325683e-01 0.000000e+00
-1.323183e-01 0.000000e+00
-1.320683e-01 0.000000e+00
-1.318183e-01 0.000000e+00
-1.315683e-01 0.000000e+00
-1.313183e-01 0.000000e+00
-1.310683e-01 0.000000e+00
-1.308183e-01 0.000000e+00
-1.305683e-01 0.000000e+00
-1.303183e-01 0.000000e+00
-1.300683e-01 0.000000e+00
-1.298183e-01 0.000000e+00
-1.295683e-01 0.000000e+00
-1.293183e-01 0.000000e+00
-1.290683e-01 0.000000e+00
-1.288183e-01 0.000000e+00
-1.285683e-01 0.000000e+00
-1.283183e-01 0.000000e+00
-1.280683e-01 0.000000e+00
-1.278183e-01 0.000000e+00
-1.275683e-01 0.000000e+00
-1.273183e-01 0.000000e+00
-1.270683e-01 0.000000e+00
-1.268183e-01 0.000000e+00
-1.265683e-01 0.000000e+00
-1.263183e-01 0.000000e+00
-1.260683e-01 0.000000e+00
-1.258183e-01 0.000000e+00
-1.255683e-01 0.000000e+00
-1.253183e-01 0.000000e+00
-1.250683e-01 0.000000e+00
-1.248183e-01 0.000000e+00
-1.245683e-01 0.000000e+00
-1.243183e-01 0.000000e+00
-1.240683e-01 0.000000e+00
-1.238183e-01 0.000000e+00
-1.235683e-01 0.000000e+00
-1.233183e-01 0.000000e+00
-1.230683e-01 0.000000e+00
-1.228183e-01 0.000000e+00
-1.225683e-01 0.000000e+00
-1.223183e-01 0.000000e+00
-1.220683e-01 0.000000e+00
-1.218183e-01 0.000000e+00
-1.215683e-01 0.000000e+00
-1.213183e-01 0.000000e+00
-1.210683e-01 0.000000e+00
-1.208183e-01 0.000000e+00
-1.205683e-01 0.000000e+00
-1.203183e-01 0.000000e+00
-1.200683e-01 0.000000e+00
-1.198183e-01 0.000000e+00
-1.195683e-01 0.000000e+00
-1.193183e-01 0.000000e+00
-1.190683e-01 0.000000e+00
-1.188183e-01 0.000000e+00
-1.185683e-01 0.000000e+00
-1.183183e-01 0.000000e+00
-1.180683e-01 0.000000e+00
-1.178183e-01 0.000000e+00
-1.175683e-01 0.000000e+00
-1.173183e-01 0.000000e+00
-1.170683e-01 0.000000e+00
-1.168183e-01 0.000000e+00
-1.165683e-01 0.000000e+00
-1.163183e-01 0.000000e+00
-1.160683e-01 0.000000e+00
-1.158183e-01 0.000000e+00
-1.155683e-01 0.000000e+00
-1.153183e-01 0.000000e+00
-1.150683e-01 0.000000e+00
-1.148183e-01 0.000000e+00
-1.145683e-01 0.000000e+00
-1.143183e-01 0.000000e+00
-1.140683e-01 0.000000e+00
-1.138183e-01 0.000000e+00
-1.135683e-01 0.000000e+00
-1.133183e-01 0.000000e+00
-1.130683e-01 0.000000e+00
-1.128183e-01 0.000000e+00
-1.125683e-01 0.000000e+00
-1.123183e-01 0.000000e+00
-1.120683e-01 0.000000e+00
-1.118183e-01 0.000000e+00
-1.115683e-01 0.000000e+00
-1.113183e-01 0.000000e+00
-1.110683e-01 0.000000e+00
-1.108183e-01 0.000000e+00
-1.105683e-01 0.000000e+00
-1.103183e-01 0.000000e+00
-1.100683e-01 0.000000e+00
-1.098183e-01 0.000000e+00
-1.095683e-01 0.000000e+00
-1.093183e-01 0.000000e+00
-1.090683e-01 0.000000e+00
-1.088183e-01 0.000000e+00
-1.085683e-01 0.000000e+00
-1.083183e-01 0.000000e+00
-1.080683e-01 0.000000e+00
-1.078183e-01 0.000000e+00
-1.075683e-01 0.000000e+00
-1.073183e-01 0.000000e+00
-1.070683e-01 0.000000e+00
-1.068183e-01 0.000000e+00
-1.065683e-01 0.000000e+00
-1.063183e-01 0.000000e+00
-1.060683e-01 0.000000e+00
-1.058183e-01 0.000000e+00
-1.055683e-01 0.000000e+00
-1.053183e-01 0.000000e+00
-1.050683e-01 0.000000e+00
-1.048183e-01 0.000000e+00
-1.045683e-01 0.000000e+00
-1.043183e-01 0.000000e+00
-1.040683e-01 0.000000e+00
-1.038183e-01 0.000000e+00
-1.035683e-01 0.000000e+00
-1.033183e-01 0.000000e+00
-1.030683e-01 0.000000e+00
-1.028183e-01 0.000000e+00
-1.025683e-01 0.000000e+00
-1.023183e-01 0.000000e+00
-1.020683e-01 0.000000e+00
-1.018183e-01 0.000000e+00
-1.015683e-01 0.000000e+00
-1.013183e-01 0.000000e+00
-1.010683e-01 0.000000e+00
-1.008183e-01 0.000000e+00
-1.005683e-01 0.000000e+00
-1.003183e-01 0.000000e+00
-1.000683e-01 0.000000e+00
-9.981829e-02 0.000000e+00
-9.956829e-02 0.000000e+00
-9.931830e-02 0.000000e+00
-9.906829e-02 0.000000e+00
-9.881829e-02 0.000000e+00
-9.856829e-02 0.000000e+00
-9.831829e-02 0.000000e+00
-9.806830e-02 0.000000e+00
-9.781829e-02 0.000000e+00
-9.756829e-02 0.000000e+00
-9.731829e-02 0.000000e+00
-9.706829e-02 0.000000e+00
-9.681829e-02 0.000000e+00
-9.656829e-02 0.000000e+00
-9.631829e-02 0.000000e+00
-9.606829e-02 0.000000e+00
-9.581830e-02 0.000000e+00
-9.556829e-02 0.000000e+00
-9.531829e-02 0.000000e+00
-9.506829e-02 0.000000e+00
-9.481829e-02 0.000000e+00
-9.456830e-02 0.000000e+00
-9.431829e-02 0.000000e+00
-9.406829e-02 0.000000e+00
-9.381829e-02 0.000000e+00
-9.356830e-02 0.000000e+00
-9.331829e-02 0.000000e+00
-9.306829e-02 0.000000e+00
-9.281829e-02 0.000000e+00
-9.256829e-02 0.000000e+00
-9.231830e-02 0.000000e+00
-9.206829e-02 0.000000e+00
-9.181829e-02 0.000000e+00
-9.156829e-02 0.000000e+00
-9.131829e-02 0.000000e+00
-9.106829e-02 0.000000e+00
-9.081829e-02 0.000000e+00
-9.056829e-02 0.000000e+00
-9.031829e-02 0.000000e+00
-9.006830e-02 0.000000e+00
-8.981829e-02 0.000000e+00
-8.956829e-02 0.000000e+00
-8.931829e-02 0.000000e+00
-8.906829e-02 0.000000e+00
-8.881830e-02 0.000000e+00
-8.856829e-02 0.000000e+00
-8.831829e-02 0.000000e+00
-8.806829e-02 0.000000e+00
-8.781829e-02 0.000000e+00
-8.756829e-02 0.000000e+00
-8.731829e-02 0.000000e+00
-8.706829e-02 0.000000e+00
-8.681829e-02 0.000000e+00
-8.656830e-02 0.000000e+00
-8.631829e-02 0.000000e+00
-8.606829e-02 0.000000e+00
-8.581829e-02 0.000000e+00
-8.556829e-02 0.000000e+00
-8.531829e-02 0.000000e+00
-8.506829e-02 0.000000e+00
-8.481829e-02 0.000000e+00
-8.456829e-02 0.000000e+00
-8.431830e-02 0.000000e+00
-8.406829e-02 0.000000e+00
-8.381829e-02 0.000000e+00
-8.356829e-02 0.000000e+00
-8.331829e-02 0.000000e+00
-8.306830e-02 0.000000e+00
-8.281829e-02 0.000000e+00
-8.256829e-02 0.000000e+00
-8.231829e-02 0.000000e+00
-8.206829e-02 0.000000e+00
-8.181829e-02 0.000000e+00
-8.156829e-02 0.000000e+00
-8.131829e-02 0.000000e+00
-8.106829e-02 0.000000e+00
-8.081830e-02 0.000000e+00
-8.056829e-02 0.000000e+00
-8.031829e-02 0.000000e+00
-8.006829e-02 0.000000e+00
-7.981829e-02 0.000000e+00
-7.956829e-02 0.000000e+00
-7.931829e-02 0.000000e+00
-7.906829e-02 0.000000e+00
-7.881829e-02 0.000000e+00
-7.856829e-02 0.000000e+00
-7.831829e-02 0.000000e+00
-7.806829e-02 0.000000e+00
-7.781829e-02 0.000000e+00
-7.756829e-02 0.000000e+00
-7.731830e-02 0.000000e+00
-7.706829e-02 0.000000e+00
-7.681829e-02 0.000000e+00
-7.656829e-02 0.000000e+00
-7.631829e-02 0.000000e+00
-7.606829e-02 0.000000e+00
-7.581829e-02 -1.401298e-45
-7.556829e-02 0.000000e+00
-7.531829e-02 0.000000e+00
-7.506829e-02 -2.802597e-45
-7.481829e-02 -1.401298e-45
-7.456829e-02 -7.006492e-45
-7.431829e-02 -8.407791e-45
-7.406829e-02 -7.006492e-45
-7.381829e-02 -4.203895e-45
-7.356829e-02 8.407791e-45
-7.331829e-02 2.242078e-44
-7.306829e-02 3.923636e-44
-7.281829e-02 5.324934e-44
-7.256829e-02 4.764415e-44
-7.231829e-02 1.261169e-44
-7.206829e-02 -5.324934e-44
-7.181829e-02 -1.471363e-43
-7.156829e-02 -2.480298e-43
-7.131829e-02 -2.872662e-43
-7.106829e-02 -2.172013e-43
-7.081829e-02 2.242078e-44
-7.056829e-02 4.273960e-43
-7.031829e-02 9.276596e-43
-7.006829e-02 1.345247e-42
-6.981829e-02 1.401298e-42
-6.956829e-02 8.099505e-43
-6.931829e-02 -6.361895e-43
-6.906829e-02 -2.830623e-42
-6.881829e-02 -5.260474e-42
-6.856829e-02 -6.880375e-42
-6.831829e-02 -6.317053e-42
-6.806829e-02 -2.264498e-42
-6.781829e-02 5.806981e-42
-6.756829e-02 1.684781e-41
-6.731829e-02 2.761679e-41
-6.706829e-02 3.272592e-41
-6.681829e-02 2.574045e-41
-6.656829e-02 1.575059e-42
-6.631829e-02 -4.015000e-41
-6.606829e-02 -9.166594e-41
-6.581829e-02 -1.352337e-40
-6.556829e-02 -1.448102e-40
-6.531829e-02 -9.282621e-41
-6.506829e-02 3.778882e-41
-6.481829e-02 2.384940e-40
-6.456829e-02 4.622211e-40
-6.431829e-02 6.199919e-40
-6.406829e-02 5.950348e-40
-6.381829e-02 2.791541e-40
-6.356829e-02 -3.714254e-40
-6.331829e-02 -1.274105e-39
-6.306829e-02 -2.177045e-39
-6.281829e-02 -2.667154e-39
-6.256829e-02 -2.257706e-39
-6.231829e-02 -5.648998e-40
-6.206829e-02 2.452026e-39
-6.181829e-02 6.258006e-39
-6.156829e-02 9.627719e-39
-6.131829e-02 1.077472e-38
-6.106829e-02 7.814272e-39
-6.081829e-02 -4.470198e-40
-6.056829e-02 -1.355453e-38
-6.031829e-02 -2.861354e-38
-6.006829e-02 -4.011725e-38
-5.981829e-02 -4.084124e-38
-5.956829e-02 -2.403642e-38
-5.931829e-02 1.329549e-38
-5.906829e-02 6.686867e-38
-5.881829e-02 1.227437e-37
-5.856829e-02 1.578480e-37
-5.831829e-02 1.448240e-37
-5.806829e-02 6.154829e-38
-5.781829e-02 -9.620171e-38
-5.756829e-02 -3.027106e-37
-5.731829e-02 -4.965476e-37
-5.706829e-02 -5.870936e-37
-5.681829e-02 -4.774032e-37
-5.656829e-02 -1.025431e-37
-5.631829e-02 5.246762e-37
-5.606829e-02 1.276310e-36
-5.581829e-02 1.900953e-36
-5.556829e-02 2.063903e-36
-5.531829e-02 1.444796e-36
-5.506829e-02 -1.181712e-37
-5.481829e-02 -2.474259e-36
-5.456829e-02 -5.056987e-36
-5.431829e-02 -6.902702e-36
-5.406829e-02 -6.847301e-36
-5.381829e-02 -3.911199e-36
-5.356829e-02 2.192175e-36
-5.331829e-02 1.057505e-35
-5.306829e-02 1.893833e-35
-5.281829e-02 2.380439e-35
-5.256829e-02 2.136265e-35
-5.231829e-02 8.885248e-36
-5.206829e-02 -1.359010e-35
-5.181829e-02 -4.187850e-35
-5.156829e-02 -6.729442e-35
-5.131829e-02 -7.798677e-35
-5.106829e-02 -6.224736e-35
-5.081829e-02 -1.339682e-35
-5.056829e-02 6.499583e-35
-5.031829e-02 1.555531e-34
-5.006829e-02 2.274624e-34
-4.981829e-02 2.425355e-34
-4.956829e-02 1.672097e-34
-4.931829e-02 -1.157902e-35
-4.906829e-02 -2.712926e-34
-4.881829e-02 -5.459941e-34
-4.856829e-02 -7.324856e-34
-4.831829e-02 -7.144456e-34
-4.806829e-02 -4.031807e-34
-4.781829e-02 2.137897e-34
-4.756829e-02 1.032355e-33
-4.731829e-02 1.819745e-33
-4.706829e-02 2.248652e-33
-4.681829e-02 1.984878e-33
-4.656829e-02 8.176262e-34
-4.631829e-02 -1.200604e-33
-4.606829e-02 -3.656262e-33
-4.581829e-02 -5.777168e-33
-4.556829e-02 -6.578804e-33
-4.531829e-02 -5.159985e-33
-4.506829e-02 -1.096135e-33
-4.481829e-02 5.183412e-33
-4.456829e-02 1.219087e-32
-4.431829e-02 1.750470e-32
-4.406829e-02 1.831672e-32
-4.381829e-02 1.236789e-32
-4.356829e-02 -9.303251e-34
-4.331829e-02 -1.955130e-32
-4.306829e-02 -3.853288e-32
-4.281829e-02 -5.067146e-32
-4.256829e-02 -4.838562e-32
-4.231829e-02 -2.650936e-32
-4.206829e-02 1.469064e-32
-4.181829e-02 6.736049e-32
-4.156829e-02 1.159658e-31
-4.131829e-02 1.401450e-31
-4.106829e-02 1.206059e-31
-4.081829e-02 4.701459e-32
-4.056829e-02 -7.437934e-32
-4.031829e-02 -2.164464e-31
-4.006829e-02 -3.332143e-31
-3.981829e-02 -3.699896e-31
-3.956829e-02 -2.808763e-31
-3.931829e-02 -4.986704e-32
-3.906829e-02 2.912143e-31
-3.881829e-02 6.560681e-31
-3.856829e-02 9.155569e-31
-3.831829e-02 9.302865e-31
-3.806829e-02 5.997643e-31
-3.781829e-02 -8.430405e-32
-3.756829e-02 -9.993877e-31
-3.731829e-02 -1.888574e-30
-3.706829e-02 -2.406831e-30
-3.681829e-02 -2.218345e-30
-3.656829e-02 -1.127182e-30
-3.631829e-02 7.959562e-31
-3.606829e-02 3.140546e-30
-3.581829e-02 5.184441e-30
-3.556829e-02 6.050445e-30
-3.531829e-02 4.979423e-30
-3.506829e-02 1.659453e-30
-3.481829e-02 -3.492940e-30
-3.456829e-02 -9.223301e-30
-3.431829e-02 -1.360534e-29
-3.406829e-02 -1.451979e-29
-3.381829e-02 -1.037849e-29
-3.356829e-02 -9.090844e-31
-3.331829e-02 1.227295e-29
-3.306829e-02 2.559584e-29
-3.281829e-02 3.417074e-29
-3.256829e-02 3.314918e-29
-3.231829e-02 1.954252e-29
-3.206829e-02 -6.015355e-30
-3.181829e-02 -3.824161e-29
-3.156829e-02 -6.755308e-29
-3.131829e-02 -8.213606e-29
-3.106829e-02 -7.155799e-29
-3.081829e-02 -3.110464e-29
-3.056829e-02 3.452379e-29
-3.031829e-02 1.097510e-28
-3.006829e-02 1.701977e-28
-2.981829e-02 1.887124e-28
-2.956829e-02 1.444546e-28
-2.931829e-02 3.268455e-29
-2.906829e-02 -1.281309e-28
-2.881829e-02 -2.954151e-28
-2.856829e-02 -4.101696e-28
-2.831829e-02 -4.132416e-28
-2.806829e-02 -2.669824e-28
-2.781828e-02 2.392845e-29
-2.756829e-02 4.004393e-28
-2.731829e-02 7.531460e-28
-2.706829e-02 9.460838e-28
-2.681829e-02 8.578999e-28
-2.656829e-02 4.308617e-28
-2.631829e-02 -2.878000e-28
-2.606829e-02 -1.129804e-27
-2.581829e-02 -1.828888e-27
-2.556829e-02 -2.086932e-27
-2.531829e-02 -1.672462e-27
-2.506829e-02 -5.256661e-28
-2.481829e-02 1.166454e-27
-2.456829e-02 2.961473e-27
-2.431829e-02 4.243227e-27
-2.406829e-02 4.391819e-27
-2.381829e-02 3.007122e-27
-2.356829e-02 1.207732e-28
-2.331829e-02 -3.683987e-27
-2.306829e-02 -7.316156e-27
-2.281829e-02 -9.418034e-27
-2.256829e-02 -8.775390e-27
-2.231829e-02 -4.798684e-27
-2.206829e-02 2.077968e-27
-2.181829e-02 1.024901e-26
-2.156829e-02 1.716895e-26
-2.131829e-02 1.999140e-26
-2.106829e-02 1.650459e-26
-2.081829e-02 6.112314e-27
-2.056829e-02 -9.480748e-27
-2.031828e-02 -2.621248e-26
-2.006829e-02 -3.843851e-26
-1.981829e-02 -4.049987e-26
-1.956829e-02 -2.874680e-26
-1.931829e-02 -3.421124e-27
-1.906829e-02 3.032053e-26
-1.881829e-02 6.285464e-26
-1.856828e-02 8.226653e-26
-1.831829e-02 7.796100e-26
-1.806829e-02 4.481609e-26
-1.781829e-02 -1.345649e-26
-1.756829e-02 -8.317082e-26
-1.731829e-02 -1.427722e-25
-1.706829e-02 -1.683362e-25
-1.681828e-02 -1.414318e-25
-1.656829e-02 -5.718999e-26
-1.631829e-02 7.024997e-26
-1.606829e-02 2.075768e-25
-1.581829e-02 3.089247e-25
-1.556829e-02 3.287535e-25
-1.531829e-02 2.380933e-25
-1.506829e-02 3.927592e-26
-1.481829e-02 -2.264995e-25
-1.456829e-02 -4.833771e-25
-1.431829e-02 -6.384711e-25
-1.406829e-02 -6.102146e-25
-1.381829e-02 -3.601940e-25
-1.356828e-02 8.190934e-26
-1.331829e-02 6.109329e-25
-1.306829e-02 1.063621e-24
-1.281829e-02 1.261097e-24
-1.256830e-02 1.067887e-24
-1.231828e-02 4.509096e-25
-1.206829e-02 -4.824701e-25
-1.181829e-02 -1.486157e-24
-1.156829e-02 -2.226415e-24
-1.131828e-02 -2.376901e-24
-1.106828e-02 -1.735277e-24
-1.081829e-02 -3.257375e-25
-1.056829e-02 1.552286e-24
-1.031829e-02 3.359981e-24
-1.006828e-02 4.448175e-24
-9.818286e-03 4.257420e-24
-9.568289e-03 2.536431e-24
-9.318292e-03 -4.933899e-25
-9.068280e-03 -4.098571e-24
-8.818284e-03 -7.164070e-24
-8.568287e-03 -8.489620e-24
-8.318290e-03 -7.188549e-24
-8.068293e-03 -3.074183e-24
-7.818282e-03 3.104747e-24
-7.568285e-03 9.698870e-24
-7.318288e-03 1.451629e-23
-7.068291e-03 1.545661e-23
-6.818295e-03 1.126520e-23
-6.568283e-03 2.172648e-24
-6.318286e-03 -9.831764e-24
-6.068289e-03 -2.127504e-23
-5.818292e-03 -2.805801e-23
-5.568281e-03 -2.673359e-23
-5.318284e-03 -1.585855e-23
-5.068287e-03 3.035433e-24
-4.818290e-03 2.527923e-23
-4.568294e-03 4.395733e-23
-4.318282e-03 5.178697e-23
-4.068285e-03 4.355964e-23
-3.818288e-03 1.842511e-23
-3.568292e-03 -1.881310e-23
-3.318280e-03 -5.806781e-23
-3.068283e-03 -8.625608e-23
-2.818286e-03 -9.114655e-23
-2.568290e-03 -6.578434e-23
-2.318293e-03 -1.208812e-23
-2.068281e-03 5.781534e-23
-1.818284e-03 1.234910e-22
-1.568288e-03 1.613955e-22
-1.318291e-03 1.523122e-22
-1.068294e-03 8.894443e-23
-8.182824e-04 -1.892775e-23
-5.682856e-04 -1.440501e-22
-3.182888e-04 -2.472429e-22
-6.829202e-05 -2.882836e-22
1.817197e-04 -2.395299e-22
4.317164e-04 -9.817690e-23
6.817132e-04 1.073841e-22
9.317100e-04 3.205767e-22
1.181707e-03 4.700090e-22
1.431718e-03 4.908212e-22
1.681715e-03 3.483672e-22
1.931712e-03 5.656792e-23
2.181709e-03 -3.165209e-22
2.431706e-03 -6.605644e-22
2.681717e-03 -8.518410e-22
2.931714e-03 -7.928345e-22
3.181711e-03 -4.511624e-22
3.431708e-03 1.156770e-22
3.681719e-03 7.612107e-22
3.931716e-03 1.281595e-21
4.181713e-03 1.473447e-21
4.431710e-03 1.203506e-21
4.681706e-03 4.686537e-22
4.931718e-03 -5.762484e-22
5.181715e-03 -1.638877e-21
5.431712e-03 -2.361182e-21
5.681708e-03 -2.428218e-21
5.931720e-03 -1.684368e-21
6.181717e-03 -2.186794e-22
6.431714e-03 1.616127e-21
6.681710e-03 3.270836e-21
6.931707e-03 4.147461e-21
7.181719e-03 3.793159e-21
7.431716e-03 2.083328e-21
7.681713e-03 -6.707807e-22
7.931709e-03 -3.741634e-21
8.181706e-03 -6.150667e-21
8.431718e-03 -6.951531e-21
8.681715e-03 -5.558028e-21
8.931711e-03 -2.013669e-21
9.181708e-03 2.900319e-21
9.431720e-03 7.786813e-21
9.681717e-03 1.098755e-20
9.931713e-03 1.109519e-20
1.018171e-02 7.478827e-21
1.043171e-02 6.469498e-22
1.068172e-02 -7.706871e-21
1.093172e-02 -1.505153e-20
1.118171e-02 -1.871614e-20
1.143171e-02 -1.676759e-20
1.168172e-02 -8.804156e-21
1.193172e-02 3.620127e-21
1.218171e-02 1.715345e-20
1.243171e-02 2.744253e-20
1.268171e-02 3.041657e-20
1.293172e-02 2.371489e-20
1.318172e-02 7.801367e-21
1.343171e-02 -1.366959e-20
1.368171e-02 -3.449771e-20
1.393171e-02 -4.756016e-20
1.418172e-02 -4.704432e-20
1.443172e-02 -3.064651e-20
1.468171e-02 -9.876862e-22
1.493171e-02 3.437502e-20
1.518172e-02 6.459914e-20
1.543172e-02 7.861375e-20
1.568171e-02 6.880384e-20
1.593171e-02 3.419238e-20
1.618171e-02 -1.804366e-20
1.643172e-02 -7.353165e-20
1.668172e-02 -1.142540e-19
1.693171e-02 -1.239552e-19
1.718171e-02 -9.391299e-20
1.743171e-02 -2.719402e-20
1.768172e-02 6.030399e-20
1.793171e-02 1.429389e-19
1.818171e-02 1.922234e-19
1.843171e-02 1.858814e-19
1.868172e-02 1.163939e-19
1.893172e-02 -3.928119e-21
1.918171e-02 -1.436457e-19
1.943171e-02 -2.594298e-19
1.968171e-02 -3.085274e-19
1.993172e-02 -2.631683e-19
2.018172e-02 -1.224104e-19
2.043171e-02 8.298453e-20
2.068171e-02 2.954635e-19
2.093172e-02 4.453926e-19
2.118172e-02 4.722892e-19
2.143171e-02 3.465634e-19
2.168171e-02 8.457287e-20
2.193171e-02 -2.491669e-19
2.218172e-02 -5.554960e-19
2.243172e-02 -7.279430e-19
2.268171e-02 -6.870265e-19
2.293171e-02 -4.112103e-19
2.318171e-02 4.638649e-20
2.343172e-02 5.634448e-19
2.368172e-02 9.778769e-19
2.393171e-02 1.135322e-18
2.418171e-02 9.417931e-19
2.443172e-02 4.047433e-19
2.468172e-02 -3.530188e-19
2.493171e-02 -1.115593e-18
2.518171e-02 -1.630824e-18
2.543171e-02 -1.688319e-18
2.568172e-02 -1.196039e-18
2.593172e-02 -2.297226e-19
2.618171e-02 9.656304e-19
2.643171e-02 2.030314e-18
2.668172e-02 2.591213e-18
2.693172e-02 2.383515e-18
2.718171e-02 1.355549e-18
2.743171e-02 -2.807212e-19
2.768171e-02 -2.078857e-18
2.793172e-02 -3.469453e-18
2.818172e-02 -3.929752e-18
2.843171e-02 -3.164039e-18
2.868171e-02 -1.236574e-18
2.893171e-02 1.394335e-18
2.918172e-02 3.967645e-18
2.943172e-02 5.625132e-18
2.968171e-02 5.680503e-18
2.993171e-02 3.872483e-18
3.018172e-02 5.155795e-19
3.043172e-02 -3.516887e-18
3.068171e-02 -6.997216e-18
3.093171e-02 -8.695668e-18
3.118171e-02 -7.786303e-18
3.143172e-02 -4.179960e-18
3.168172e-02 1.336637e-18
3.193171e-02 7.230475e-18
3.218171e-02 1.161755e-17
3.243172e-02 1.283241e-17
3.268172e-02 1.000948e-17
3.293172e-02 3.485690e-18
3.318171e-02 -5.134631e-18
3.343171e-02 -1.332344e-17
3.368172e-02 -1.832730e-17
3.393172e-02 -1.804131e-17
3.418171e-02 -1.179579e-17
3.443171e-02 -7.836217e-19
3.468171e-02 1.206452e-17
3.493172e-02 2.279502e-17
3.518172e-02 2.758523e-17
3.543171e-02 2.401882e-17
3.568171e-02 1.207983e-17
3.593172e-02 -5.502064e-18
3.618172e-02 -2.376031e-17
3.643171e-02 -3.680745e-17
3.668171e-02 -3.963877e-17
3.693171e-02 -2.989866e-17
3.718172e-02 -9.023561e-18
3.743172e-02 1.770127e-17
3.768171e-02 4.234092e-17
3.793171e-02 5.654584e-17
3.818171e-02 5.423181e-17
3.843172e-02 3.388564e-17
3.868172e-02 -3.115775e-19
3.893171e-02 -3.907494e-17
3.918171e-02 -7.035999e-17
3.943172e-02 -8.293062e-17
3.968172e-02 -7.014666e-17
3.993171e-02 -3.275835e-17
4.018171e-02 2.034218e-17
4.043171e-02 7.393442e-17
4.068172e-02 1.105978e-16
4.093172e-02 1.161127e-16
4.118171e-02 8.453458e-17
4.143171e-02 2.123637e-17
4.168172e-02 -5.734627e-17
4.193172e-02 -1.276207e-16
4.218172e-02 -1.655974e-16
4.243171e-02 -1.546687e-16
4.268171e-02 -9.199613e-17
4.293172e-02 8.764568e-18
4.318172e-02 1.197689e-16
4.343171e-02 2.062215e-16
4.368171e-02 2.368199e-16
4.393171e-02 1.944097e-16
4.418172e-02 8.339649e-17
4.443172e-02 -6.892103e-17
4.468171e-02 -2.183120e-16
4.493171e-02 -3.158552e-16
4.518172e-02 -3.232703e-16
4.543172e-02 -2.267279e-16
4.568172e-02 -4.444510e-17
4.593171e-02 1.751979e-16
4.618171e-02 3.655983e-16
4.643172e-02 4.613037e-16
4.668172e-02 4.194354e-16
4.693171e-02 2.364418e-16
4.718171e-02 -4.585551e-17
4.743172e-02 -3.482227e-16
4.768172e-02 -5.751229e-16
4.793172e-02 -6.437318e-16
4.818171e-02 -5.123900e-16
4.843171e-02 -1.991726e-16
4.868172e-02 2.166748e-16
4.893172e-02 6.129916e-16
4.918171e-02 8.591122e-16
4.943171e-02 8.572098e-16
4.968171e-02 5.779825e-16
4.993172e-02 7.840688e-17
5.018172e-02 -5.063625e-16
5.043171e-02 -9.974205e-16
5.068171e-02 -1.224839e-15
5.093172e-02 -1.083770e-15
5.118172e-02 -5.761213e-16
5.143172e-02 1.774227e-16
5.168171e-02 9.624383e-16
5.193171e-02 1.529112e-15
5.218172e-02 1.668902e-15
5.243172e-02 1.286817e-15
5.268171e-02 4.453811e-16
5.293171e-02 -6.372539e-16
5.318171e-02 -1.639769e-15
5.343172e-02 -2.229582e-15
5.368172e-02 -2.168993e-15
5.393171e-02 -1.402881e-15
5.418171e-02 -9.743262e-17
5.443172e-02 1.388216e-15
5.468172e-02 2.595916e-15
5.493172e-02 3.105117e-15
5.518171e-02 2.672823e-15
5.543171e-02 1.332038e-15
5.568172e-02 -5.877792e-16
5.593172e-02 -2.533663e-15
5.618171e-02 -3.882376e-15
5.643171e-02 -4.133448e-15
5.668172e-02 -3.084131e-15
5.693172e-02 -9.277593e-16
5.718172e-02 1.764675e-15
5.743171e-02 4.186746e-15
5.768171e-02 5.530332e-15
5.793172e-02 5.245597e-15
5.818172e-02 3.246196e-15
5.843171e-02 -1.238183e-17
5.868171e-02 -3.620436e-15
5.893171e-02 -6.457409e-15
5.918172e-02 -7.529449e-15
5.943172e-02 -6.302608e-15
5.968171e-02 -2.923902e-15
5.993171e-02 1.752977e-15
6.018172e-02 6.366478e-15
6.043172e-02 9.430499e-15
6.068172e-02 9.798486e-15
6.093171e-02 7.067547e-15
6.118171e-02 1.786319e-15
6.143172e-02 -4.621010e-15
6.168172e-02 -1.021990e-14
6.193171e-02 -1.313276e-14
6.218171e-02 -1.214726e-14
6.243172e-02 -7.174293e-15
6.268172e-02 6.069769e-16
6.293172e-02 8.996096e-15
6.318171e-02 1.537140e-14
6.343171e-02 1.748696e-14
6.368172e-02 1.423067e-14
6.393172e-02 6.096321e-15
6.418172e-02 -4.811054e-15
6.443171e-02 -1.528573e-14
6.468171e-02 -2.193631e-14
6.493172e-02 -2.225255e-14
6.518172e-02 -1.549746e-14
6.543171e-02 -3.120936e-15
6.568171e-02 1.148540e-14
6.593172e-02 2.387951e-14
6.618172e-02 2.988514e-14
6.643172e-02 2.695343e-14
6.668171e-02 1.513857e-14
6.693171e-02 -2.663133e-15
6.718172e-02 -2.135969e-14
6.743172e-02 -3.507538e-14
6.768171e-02 -3.895109e-14
6.793171e-02 -3.079520e-14
6.818172e-02 -1.204207e-14
6.843172e-02 1.235505e-14
6.868172e-02 3.516584e-14
6.893171e-02 4.897130e-14
6.918171e-02 4.851282e-14
6.943172e-02 3.257599e-14
6.968172e-02 4.763115e-15
6.993172e-02 -2.719823e-14
7.018171e-02 -5.352843e-14
7.043171e-02 -6.531944e-14
7.068172e-02 -5.745571e-14
7.093172e-02 -3.059954e-14
7.118171e-02 8.479953e-15
7.143171e-02 4.849402e-14
7.168172e-02 7.680950e-14
7.193172e-02 8.334680e-14
7.218172e-02 6.402395e-14
7.243171e-02 2.260769e-14
7.268171e-02 -2.976597e-14
7.293172e-02 -7.746120e-14
7.318172e-02 -1.049065e-13
7.343172e-02 -1.015533e-13
7.368171e-02 -6.568490e-14
7.393171e-02 -5.759711e-15
7.418172e-02 6.136254e-14
7.443172e-02 1.150260e-13
7.468171e-02 1.370038e-13
7.493171e-02 1.175057e-13
7.518172e-02 5.903816e-14
7.543172e-02 -2.330253e-14
7.568172e-02 -1.055125e-13
7.593171e-02 -1.615178e-13
7.618171e-02 -1.712702e-13
7.643172e-02 -1.276380e-13
7.668172e-02 -3.979530e-14
7.693172e-02 6.827043e-14
7.718171e-02 1.640839e-13
7.743172e-02 2.162487e-13
7.768172e-02 2.044956e-13
7.793172e-02 1.270638e-13
7.818171e-02 2.842605e-15
7.843171e-02 -1.328540e-13
7.868172e-02 -2.380804e-13
7.893172e-02 -2.769851e-13
7.918172e-02 -2.316799e-13
7.943171e-02 -1.094146e-13
7.968171e-02 5.761051e-14
7.993172e-02 2.203541e-13
8.018172e-02 3.270520e-13
8.043171e-02 3.393707e-13
8.068171e-02 2.456445e-13
8.093172e-02 6.676166e-14
8.118172e-02 -1.477711e-13
8.143172e-02 -3.331427e-13
8.168171e-02 -4.284826e-13
8.193171e-02 -3.964226e-13
8.218172e-02 -2.368105e-13
8.243172e-02 1.024030e-14
8.268172e-02 2.737897e-13
8.293171e-02 4.720157e-13
8.318172e-02 5.371938e-13
8.343172e-02 4.382127e-13
8.368172e-02 1.933052e-13
8.393171e-02 -1.318055e-13
8.418171e-02 -4.409126e-13
8.443172e-02 -6.353027e-13
8.468172e-02 -6.447188e-13
8.493172e-02 -4.517592e-13
8.518171e-02 -1.014855e-13
8.543171e-02 3.079417e-13
8.568172e-02 6.521167e-13
8.593172e-02 8.175979e-13
8.618172e-02 7.385230e-13
8.643171e-02 4.210212e-13
8.668172e-02 -5.321664e-14
8.693172e-02 -5.469237e-13
8.718172e-02 -9.062842e-13
8.743171e-02 -1.008130e-12
8.768171e-02 -8.010318e-13
8.793172e-02 -3.268794e-13
8.818172e-02 2.853306e-13
8.843172e-02 8.535972e-13
8.868171e-02 1.196242e-12
8.893172e-02 1.189080e-12
8.918172e-02 8.086907e-13
8.943172e-02 1.471718e-13
8.968171e-02 -6.083978e-13
8.993171e-02 -1.227856e-12
9.018172e-02 -1.507173e-12
9.043172e-02 -1.334432e-12
9.068172e-02 -7.315971e-13
9.093171e-02 1.428339e-13
9.118171e-02 1.033908e-12
9.143172e-02 1.663463e-12
9.168172e-02 1.815843e-12
9.193172e-02 1.410014e-12
9.218171e-02 5.344409e-13
9.243172e-02 -5.688728e-13
9.268172e-02 -1.569686e-12
9.293172e-02 -2.147090e-12
9.318171e-02 -2.090906e-12
9.343171e-02 -1.375296e-12
9.368172e-02 -1.795504e-13
9.393172e-02 1.154130e-12
9.418172e-02 2.216891e-12
9.443171e-02 2.656978e-12
9.468171e-02 2.293986e-12
9.493172e-02 1.187080e-12
9.518172e-02 -3.673617e-13
9.543172e-02 -1.912668e-12
9.568171e-02 -2.964250e-12
9.593172e-02 -3.159584e-12
9.618172e-02 -2.379929e-12
9.643172e-02 -8.037318e-13
9.668171e-02 1.129559e-12
9.693171e-02 2.839796e-12
9.718172e-02 3.778387e-12
9.743172e-02 3.601898e-12
9.768172e-02 2.292719e-12
9.793171e-02 1.855845e-13
9.818172e-02 -2.114406e-12
9.843172e-02 -3.903549e-12
9.868172e-02 -4.593014e-12
9.893171e-02 -3.899888e-12
9.918171e-02 -1.954584e-12
9.943172e-02 7.142278e-13
9.968172e-02 3.320075e-12
9.993172e-02 5.048376e-12
1.001817e-01 5.309025e-12
1.004317e-01 3.934258e-12
1.006817e-01 1.256550e-12
1.009317e-01 -1.965130e-12
1.011817e-01 -4.756873e-12
1.014317e-01 -6.221353e-12
1.016817e-01 -5.822946e-12
1.019317e-01 -3.576869e-12
1.021817e-01 -7.738593e-14
1.024317e-01 3.653404e-12
1.026817e-01 6.459648e-12
1.029317e-01 7.405247e-12
1.031817e-01 6.079830e-12
1.034317e-01 2.758680e-12
1.036817e-01 -1.642021e-12
1.039317e-01 -5.812771e-12
1.041817e-01 -8.435795e-12
1.044317e-01 -8.595497e-12
1.046817e-01 -6.087662e-12
1.049317e-01 -1.525210e-12
1.051817e-01 3.804292e-12
1.054317e-01 8.299216e-12
1.056817e-01 1.052271e-11
1.059317e-01 9.657447e-12
1.061817e-01 5.793501e-12
1.064317e-01 -4.943761e-14
1.066817e-01 -6.187029e-12
1.069317e-01 -1.075570e-11
1.071817e-01 -1.227950e-11
1.074317e-01 -1.014664e-11
1.076817e-01 -4.842635e-12
1.079317e-01 2.145034e-12
1.081817e-01 8.738414e-12
1.084317e-01 1.288501e-11
1.086817e-01 1.319697e-11
1.089317e-01 9.415669e-12
1.091817e-01 2.547806e-12
1.094317e-01 -5.386234e-12
1.096817e-01 -1.193340e-11
1.099317e-01 -1.495405e-11
1.101817e-01 -1.330886e-11
1.104317e-01 -7.268909e-12
1.106817e-01 1.493413e-12
1.109317e-01 1.035203e-11
1.111817e-01 1.649685e-11
1.114317e-01 1.780251e-11
1.116817e-01 1.353094e-11
1.119317e-01 4.640342e-12
1.121817e-01 -6.416177e-12
1.124317e-01 -1.636640e-11
1.126817e-01 -2.208429e-11
1.129317e-01 -2.156051e-11
1.131817e-01 -1.457847e-11
1.134317e-01 -2.872318e-12
1.136817e-01 1.030715e-11
1.139317e-01 2.111277e-11
1.141817e-01 2.624657e-11
1.144317e-01 2.398770e-11
1.146817e-01 1.478065e-11
1.149317e-01 1.182922e-12
1.151817e-01 -1.283908e-11
1.154317e-01 -2.307623e-11
1.156817e-01 -2.636362e-11
1.159317e-01 -2.159445e-11
1.161817e-01 -1.013541e-11
1.164317e-01 4.511133e-12
1.166817e-01 1.772458e-11
1.169317e-01 2.517536e-11
1.171817e-01 2.420367e-11
1.174317e-01 1.473570e-11
1.176817e-01 -5.693633e-13
1.179317e-01 -1.702317e-11
1.181817e-01 -2.928299e-11
1.184317e-01 -3.300057e-11
1.186817e-01 -2.624484e-11
1.189317e-01 -1.024553e-11
1.191817e-01 1.080584e-11
1.194317e-01 3.088073e-11
1.196817e-01 4.386063e-11
1.199317e-01 4.539729e-11
1.201817e-01 3.431948e-11
1.204317e-01 1.313521e-11
1.206817e-01 -1.256227e-11
1.209317e-01 -3.564791e-11
1.211817e-01 -4.954047e-11
1.214317e-01 -5.018621e-11
1.216817e-01 -3.734144e-11
1.219317e-01 -1.473790e-11
1.221817e-01 1.095651e-11
1.224317e-01 3.210251e-11
1.226817e-01 4.240481e-11
1.229317e-01 3.887660e-11
1.231817e-01 2.283474e-11
1.234317e-01 -4.128439e-13
1.236817e-01 -2.313422e-11
1.239317e-01 -3.755024e-11
1.241817e-01 -3.830910e-11
1.244317e-01 -2.429118e-11
1.246817e-01 8.432456e-13
1.249317e-01 2.958376e-11
1.251817e-01 5.274591e-11
1.254317e-01 6.226736e-11
1.256817e-01 5.378323e-11
1.259317e-01 2.817388e-11
1.261817e-01 -8.432558e-12
1.264317e-01 -4.626544e-11
1.266817e-01 -7.469227e-11
1.269317e-01 -8.536839e-11
1.271817e-01 -7.480291e-11
1.274317e-01 -4.554213e-11
1.276817e-01 -5.559885e-12
1.279317e-01 3.400773e-11
1.281817e-01 6.214621e-11
1.284317e-01 7.128178e-11
1.286817e-01 5.962511e-11
1.289317e-01 3.178851e-11
1.291817e-01 -2.556344e-12
1.294317e-01 -3.162700e-11
1.296817e-01 -4.521365e-11
1.299317e-01 -3.797912e-11
1.301817e-01 -1.134262e-11
1.304317e-01 2.668984e-11
1.306817e-01 6.375648e-11
1.309317e-01 8.683402e-11
1.311817e-01 8.628162e-11
1.314317e-01 5.902945e-11
1.316817e-01 9.886132e-12
1.319317e-01 -4.948804e-11
1.321817e-01 -1.037191e-10
1.324317e-01 -1.380737e-10
1.326817e-01 -1.427597e-10
1.329317e-01 -1.158738e-10
1.331817e-01 -6.407828e-11
1.334317e-01 -7.728245e-13
1.336817e-01 5.776686e-11
1.339317e-01 9.709673e-11
1.341817e-01 1.088032e-10
1.344317e-01 9.287748e-11
1.346817e-01 5.752442e-11
1.349317e-01 1.647276e-11
1.351817e-01 -1.547414e-11
1.354317e-01 -2.720824e-11
1.356817e-01 -1.498995e-11
1.359317e-01 1.619003e-11
1.361817e-01 5.403017e-11
1.364317e-01 8.275924e-11
1.366817e-01 8.822972e-11
1.369317e-01 6.274571e-11
1.371817e-01 8.054364e-12
1.374317e-01 -6.443782e-11
1.376817e-01 -1.364810e-10
1.379317e-01 -1.880097e-10
1.381817e-01 -2.029708e-10
1.384317e-01 -1.742353e-10
1.386817e-01 -1.060444e-10
1.389317e-01 -1.318606e-11
1.391817e-01 8.279997e-11
1.394317e-01 1.595642e-10
1.396817e-01 2.000510e-10