-1.388183e-01 0.000000e+00
-1.385683e-01 0.000000e+00
-1.383183e-01 0.000000e+00
-1.380683e-01 0.000000e+00
-1.378183e-01 0.000000e+00
-1.375683e-01 0.000000e+00
-1.373183e-01 0.000000e+00
-1.370683e-01 0.000000e+00
-1.368183e-01 0.000000e+00
-1.365683e-01 0.000000e+00
-1.363183e-01 0.000000e+00
-1.360683e-01 0.000000e+00
-1.358183e-01 0.000000e+00
-1.355683e-01 0.000000e+00
-1.353183e-01 0.000000e+00
-1.350683e-01 0.000000e+00
-1.348183e-01 0.000000e+00
-1.345683e-01 0.000000e+00
-1.343183e-01 0.000000e+00
-1.340683e-01 0.000000e+00
-1.338183e-01 0.000000e+00
-1.335683e-01 0.000000e+00
-1.333183e-01 0.000000e+00
-1.330683e-01 0.000000e+00
-1.328183e-01 0.000000e+00
-1.325683e-01 0.000000e+00
-1.323183e-01 0.000000e+00
-1.320683e-01 0.000000e+00
-1.318183e-01 0.000000e+00
-1.315683e-01 0.000000e+00
-1.313183e-01 0.000000e+00
-1.310683e-01 0.000000e+00
-1.308183e-01 0.000000e+00
-1.305683e-01 0.000000e+00
-1.303183e-01 0.000000e+00
-1.300683e-01 0.000000e+00
-1.298183e-01 0.000000e+00
-1.295683e-01 0.000000e+00
-1.293183e-01 0.000000e+00
-1.290683e-01 0.000000e+00
-1.288183e-01 0.000000e+00
-1.285683e-01 0.000000e+00
-1.283183e-01 0.000000e+00
-1.280683e-01 0.000000e+00
-1.278183e-01 0.000000e+00
-1.275683e-01 0.000000e+00
-1.273183e-01 0.000000e+00
-1.270683e-01 0.000000e+00
-1.268183e-01 0.000000e+00
-1.265683e-01 0.000000e+00
-1.263183e-01 0.000000e+00
-1.260683e-01 0.000000e+00
-1.258183e-01 0.000000e+00
-1.255683e-01 0.000000e+00
-1.253183e-01 0.000000e+00
-1.250683e-01 0.000000e+00
-1.248183e-01 0.000000e+00
-1.245683e-01 0.000000e+00
-1.243183e-01 0.000000e+00
-1.240683e-01 0.000000e+00
-1.238183e-01 0.000000e+00
-1.235683e-01 0.000000e+00
-1.233183e-01 0.000000e+00
-1.230683e-01 0.000000e+00
-1.228183e-01 0.000000e+00
-1.225683e-01 0.000000e+00
-1.223183e-01 0.000000e+00
-1.220683e-01 0.000000e+00
-1.218183e-01 0.000000e+00
-1.215683e-01 0.000000e+00
-1.213183e-01 0.000000e+00
-1.210683e-01 0.000000e+00
-1.208183e-01 0.000000e+00
-1.205683e-01 0.000000e+00
-1.203183e-01 0.000000e+00
-1.200683e-01 0.000000e+00
-1.198183e-01 0.000000e+00
-1.195683e-01 0.000000e+00
-1.193183e-01 0.000000e+00
-1.190683e-01 0.000000e+00
-1.188183e-01 0.000000e+00
-1.185683e-01 0.000000e+00
-1.183183e-01 0.000000e+00
-1.180683e-01 0.000000e+00
-1.178183e-01 0.000000e+00
-1.175683e-01 0.000000e+00
-1.173183e-01 0.000000e+00
-1.170683e-01 0.000000e+00
-1.168183e-01 0.000000e+00
-1.165683e-01 0.000000e+00
-1.163183e-01 0.000000e+00
-1.160683e-01 0.000000e+00
-1.158183e-01 0.000000e+00
-1.155683e-01 0.000000e+00
-1.153183e-01 0.000000e+00
-1.150683e-01 0.000000e+00
-1.148183e-01 0.000000e+00
-1.145683e-01 0.000000e+00
-1.143183e-01 0.000000e+00
-1.140683e-01 0.000000e+00
-1.138183e-01 0.000000e+00
-1.135683e-01 0.000000e+00
-1.133183e-01 0.000000e+00
-1.130683e-01 0.000000e+00
-1.128183e-01 0.000000e+00
-1.125683e-01 0.000000e+00
-1.123183e-01 0.000000e+00
-1.120683e-01 0.000000e+00
-1.118183e-01 0.000000e+00
-1.115683e-01 0.000000e+00
-1.113183e-01 0.000000e+00
-1.110683e-01 0.000000e+00
-1.108183e-01 0.000000e+00
-1.105683e-01 0.000000e+00
-1.103183e-01 0.000000e+00
-1.100683e-01 0.000000e+00
-1.098183e-01 0.000000e+00
-1.095683e-01 0.000000e+00
-1.093183e-01 0.000000e+00
-1.090683e-01 0.000000e+00
-1.088183e-01 0.000000e+00
-1.085683e-01 0.000000e+00
-1.083183e-01 0.000000e+00
-1.080683e-01 0.000000e+00
-1.078183e-01 0.000000e+00
-1.075683e-01 0.000000e+00
-1.073183e-01 0.000000e+00
-1.070683e-01 0.000000e+00
-1.068183e-01 0.000000e+00
-1.065683e-01 0.000000e+00
-1.063183e-01 0.000000e+00
-1.060683e-01 0.000000e+00
-1.058183e-01 0.000000e+00
-1.055683e-01 0.000000e+00
-1.053183e-01 0.000000e+00
-1.050683e-01 0.000000e+00
-1.048183e-01 0.000000e+00
-1.045683e-01 0.000000e+00
-1.043183e-01 0.000000e+00
-1.040683e-01 0.000000e+00
-1.038183e-01 0.000000e+00
-1.035683e-01 0.000000e+00
-1.033183e-01 0.000000e+00
-1.030683e-01 0.000000e+00
-1.028183e-01 0.000000e+00
-1.025683e-01 0.000000e+00
-1.023183e-01 0.000000e+00
-1.020683e-01 0.000000e+00
-1.018183e-01 0.000000e+00
-1.015683e-01 0.000000e+00
-1.013183e-01 0.000000e+00
-1.010683e-01 0.000000e+00
-1.008183e-01 0.000000e+00
-1.005683e-01 0.000000e+00
-1.003183e-01 0.000000e+00
-1.000683e-01 0.000000e+00
-9.981829e-02 0.000000e+00
-9.956829e-02 0.000000e+00
-9.931830e-02 0.000000e+00
-9.906829e-02 0.000000e+00
-9.881829e-02 0.000000e+00
-9.856829e-02 0.000000e+00
-9.831829e-02 0.000000e+00
-9.806830e-02 0.000000e+00
-9.781829e-02 0.000000e+00
-9.756829e-02 0.000000e+00
-9.731829e-02 0.000000e+00
-9.706829e-02 0.000000e+00
-9.681829e-02 0.000000e+00
-9.656829e-02 0.000000e+00
-9.631829e-02 0.000000e+00
-9.606829e-02 0.000000e+00
-9.581830e-02 0.000000e+00
-9.556829e-02 0.000000e+00
-9.531829e-02 0.000000e+00
-9.506829e-02 0.000000e+00
-9.481829e-02 0.000000e+00
-9.456830e-02 0.000000e+00
-9.431829e-02 0.000000e+00
-9.406829e-02 0.000000e+00
-9.381829e-02 0.000000e+00
-9.356830e-02 0.000000e+00
-9.331829e-02 0.000000e+00
-9.306829e-02 0.000000e+00
-9.281829e-02 0.000000e+00
-9.256829e-02 0.000000e+00
-9.231830e-02 0.000000e+00
-9.206829e-02 0.000000e+00
-9.181829e-02 0.000000e+00
-9.156829e-02 0.000000e+00
-9.131829e-02 0.000000e+00
-9.106829e-02 0.000000e+00
-9.081829e-02 0.000000e+00
-9.056829e-02 0.000000e+00
-9.031829e-02 0.000000e+00
-9.006830e-02 0.000000e+00
-8.981829e-02 0.000000e+00
-8.956829e-02 0.000000e+00
-8.931829e-02 0.000000e+00
-8.906829e-02 0.000000e+00
-8.881830e-02 0.000000e+00
-8.856829e-02 0.000000e+00
-8.831829e-02 0.000000e+00
-8.806829e-02 0.000000e+00
-8.781829e-02 0.000000e+00
-8.756829e-02 0.000000e+00
-8.731829e-02 0.000000e+00
-8.706829e-02 0.000000e+00
-8.681829e-02 0.000000e+00
-8.656830e-02 0.000000e+00
-8.631829e-02 0.000000e+00
-8.606829e-02 0.000000e+00
-8.581829e-02 0.000000e+00
-8.556829e-02 0.000000e+00
-8.531829e-02 0.000000e+00
-8.506829e-02 0.000000e+00
-8.481829e-02 0.000000e+00
-8.456829e-02 0.000000e+00
-8.431830e-02 0.000000e+00
-8.406829e-02 0.000000e+00
-8.381829e-02 0.000000e+00
-8.356829e-02 0.000000e+00
-8.331829e-02 0.000000e+00
-8.306830e-02 0.000000e+00
-8.281829e-02 0.000000e+00
-8.256829e-02 0.000000e+00
-8.231829e-02 0.000000e+00
-8.206829e-02 0.000000e+00
-8.181829e-02 0.000000e+00
-8.156829e-02 0.000000e+00
-8.131829e-02 0.000000e+00
-8.106829e-02 0.000000e+00
-8.081830e-02 0.000000e+00
-8.056829e-02 0.000000e+00
-8.031829e-02 0.000000e+00
-8.006829e-02 0.000000e+00
-7.981829e-02 0.000000e+00
-7.956829e-02 0.000000e+00
-7.931829e-02 0.000000e+00
-7.906829e-02 0.000000e+00
-7.881829e-02 0.000000e+00
-7.856829e-02 0.000000e+00
-7.831829e-02 0.000000e+00
-7.806829e-02 0.000000e+00
-7.781829e-02 0.000000e+00
-7.756829e-02 0.000000e+00
-7.731830e-02 0.000000e+00
-7.706829e-02 0.000000e+00
-7.681829e-02 0.000000e+00
-7.656829e-02 0.000000e+00
-7.631829e-02 0.000000e+00
-7.606829e-02 0.000000e+00
-7.581829e-02 0.000000e+00
-7.556829e-02 0.000000e+00
-7.531829e-02 0.000000e+00
-7.506829e-02 0.000000e+00
-7.481829e-02 0.000000e+00
-7.456829e-02 0.000000e+00
-7.431829e-02 0.000000e+00
-7.406829e-02 0.000000e+00
-7.381829e-02 0.000000e+00
-7.356829e-02 0.000000e+00
-7.331829e-02 0.000000e+00
-7.306829e-02 0.000000e+00
-7.281829e-02 0.000000e+00
-7.256829e-02 0.000000e+00
-7.231829e-02 0.000000e+00
-7.206829e-02 0.000000e+00
-7.181829e-02 0.000000e+00
-7.156829e-02 0.000000e+00
-7.131829e-02 0.000000e+00
-7.106829e-02 0.000000e+00
-7.081829e-02 0.000000e+00
-7.056829e-02 0.000000e+00
-7.031829e-02 0.000000e+00
-7.006829e-02 0.000000e+00
-6.981829e-02 0.000000e+00
-6.956829e-02 1.401298e-45
-6.931829e-02 1.401298e-45
-6.906829e-02 -1.401298e-45
-6.881829e-02 -4.203895e-45
-6.856829e-02 -8.407791e-45
-6.831829e-02 -7.006492e-45
-6.806829e-02 -9.809089e-45
-6.781829e-02 -7.006492e-45
-6.756829e-02 2.802597e-45
-6.731829e-02 1.121039e-44
-6.706829e-02 2.662467e-44
-6.681829e-02 3.923636e-44
-6.656829e-02 4.484155e-44
-6.631829e-02 2.802597e-44
-6.606829e-02 -9.809089e-45
-6.581829e-02 -7.286752e-44
-6.556829e-02 -1.401298e-43
-6.531829e-02 -1.849714e-43
-6.506829e-02 -1.877740e-43
-6.481829e-02 -9.809089e-44
-6.456829e-02 9.248570e-44
-6.431829e-02 3.657389e-43
-6.406829e-02 6.516038e-43
-6.381829e-02 8.309700e-43
-6.356829e-02 7.552999e-43
-6.331829e-02 2.858649e-43
-6.306829e-02 -6.081635e-43
-6.281829e-02 -1.807675e-42
-6.256829e-02 -2.953937e-42
-6.231829e-02 -3.514457e-42
-6.206829e-02 -2.865655e-42
-6.181829e-02 -5.423025e-43
-6.156829e-02 3.466812e-42
-6.131829e-02 8.424606e-42
-6.106829e-02 1.273220e-41
-6.081829e-02 1.410687e-41
-6.056829e-02 1.015661e-41
-6.031829e-02 -5.885454e-43
-6.006829e-02 -1.752884e-41
-5.981829e-02 -3.699708e-41
-5.956829e-02 -5.206244e-41
-5.931829e-02 -5.361508e-41
-5.906829e-02 -3.307205e-41
-5.881829e-02 1.361922e-41
-5.856829e-02 8.159761e-41
-5.831829e-02 1.540728e-40
-5.806829e-02 2.027006e-40
-5.781829e-02 1.932054e-40
-5.756829e-02 9.665736e-41
-5.731829e-02 -9.517759e-41
-5.706829e-02 -3.547079e-40
-5.681829e-02 -6.103622e-40
-5.656829e-02 -7.525253e-40
-5.631829e-02 -6.589620e-40
-5.606829e-02 -2.394217e-40
-5.581829e-02 5.089124e-40
-5.556829e-02 1.452943e-39
-5.531829e-02 2.306085e-39
-5.506829e-02 2.665840e-39
-5.481829e-02 2.119797e-39
-5.456829e-02 4.120014e-40
-5.431829e-02 -2.368347e-39
-5.406829e-02 -5.642551e-39
-5.381829e-02 -8.326231e-39
-5.356829e-02 -9.014074e-39
-5.331829e-02 -6.392554e-39
-5.306829e-02 1.733911e-40
-5.281829e-02 1.003344e-38
-5.256829e-02 2.086361e-38
-5.231829e-02 2.876916e-38
-5.206829e-02 2.908172e-38
-5.181829e-02 1.786817e-38
-5.156829e-02 -6.104872e-39
-5.131829e-02 -3.953440e-38
-5.106829e-02 -7.368060e-38
-5.081829e-02 -9.522638e-38
-5.056829e-02 -8.940909e-38
-5.031829e-02 -4.525414e-38
-5.006829e-02 3.819260e-38
-4.981829e-02 1.466677e-37
-4.956829e-02 2.491209e-37
-4.931829e-02 3.021185e-37
-4.906829e-02 2.612997e-37
-4.881829e-02 9.857091e-38
-4.856829e-02 -1.791151e-37
-4.831829e-02 -5.161785e-37
-4.806829e-02 -8.078656e-37
-4.781829e-02 -9.189307e-37
-4.756829e-02 -7.229568e-37
-4.731829e-02 -1.561892e-37
-4.706829e-02 7.289318e-37
-4.681829e-02 1.731798e-36
-4.656829e-02 2.515548e-36
-4.631829e-02 2.677868e-36
-4.606829e-02 1.878943e-36
-4.581829e-02 1.627020e-39
-4.556829e-02 -2.704607e-36
-4.531829e-02 -5.559683e-36
-4.506829e-02 -7.528680e-36
-4.481829e-02 -7.469142e-36
-4.456829e-02 -4.526154e-36
-4.431829e-02 1.412901e-36
-4.406829e-02 9.356817e-36
-4.381829e-02 1.712179e-35
-4.356829e-02 2.166630e-35
-4.331829e-02 1.989688e-35
-4.306829e-02 9.834611e-36
-4.281829e-02 -8.160471e-36
-4.256829e-02 -3.055267e-35
-4.231829e-02 -5.066737e-35
-4.206829e-02 -5.994230e-35
-4.181829e-02 -5.042140e-35
-4.156829e-02 -1.802810e-35
-4.131829e-02 3.430307e-35
-4.106829e-02 9.490320e-35
-4.081829e-02 1.442800e-34
-4.056829e-02 1.593629e-34
-4.031829e-02 1.208078e-34
-4.006829e-02 2.179224e-35
-3.981829e-02 -1.244579e-34
-3.956829e-02 -2.817588e-34
-3.931829e-02 -3.956127e-34
-3.906829e-02 -4.065456e-34
-3.881829e-02 -2.705611e-34
-3.856829e-02 1.837877e-35
-3.831829e-02 4.114761e-34
-3.806829e-02 8.023679e-34
-3.781829e-02 1.044966e-33
-3.756829e-02 9.930120e-34
-3.731829e-02 5.545857e-34
-3.706829e-02 -2.531421e-34
-3.681829e-02 -1.269432e-33
-3.656829e-02 -2.196252e-33
-3.631829e-02 -2.658166e-33
-3.606829e-02 -2.313088e-33
-3.581829e-02 -9.917061e-34
-3.556829e-02 1.176618e-33
-3.531829e-02 3.702696e-33
-3.506829e-02 5.787847e-33
-3.481829e-02 6.507105e-33
-3.456829e-02 5.105669e-33
-3.431829e-02 1.337965e-33
-3.406829e-02 -4.259623e-33
-3.381829e-02 -1.028850e-32
-3.356829e-02 -1.469716e-32
-3.331829e-02 -1.530543e-32
-3.306829e-02 -1.055988e-32
-3.281829e-02 -3.230426e-34
-3.256829e-02 1.358313e-32
-3.231829e-02 2.736628e-32
-3.206829e-02 3.597116e-32
-3.181829e-02 3.449499e-32
-3.156829e-02 2.003045e-32
-3.131829e-02 -6.592366e-33
-3.106829e-02 -3.984022e-32
-3.081829e-02 -6.990409e-32
-3.056829e-02 -8.483265e-32
-3.031829e-02 -7.416363e-32
-3.006829e-02 -3.322481e-32
-2.981829e-02 3.324180e-32
-2.956829e-02 1.096897e-31
-2.931829e-02 1.718380e-31
-2.906829e-02 1.926082e-31
-2.881829e-02 1.510169e-31
-2.856829e-02 4.175742e-32
-2.831829e-02 -1.177996e-31
-2.806829e-02 -2.865480e-31
-2.781828e-02 -4.068636e-31
-2.756829e-02 -4.200856e-31
-2.731829e-02 -2.873631e-31
-2.706829e-02 -9.930058e-33
-2.681829e-02 3.586309e-31
-2.656829e-02 7.151479e-31
-2.631829e-02 9.283812e-31
-2.606829e-02 8.774094e-31
-2.581829e-02 4.982358e-31
-2.556829e-02 -1.755593e-31
-2.531829e-02 -9.946686e-31
-2.506829e-02 -1.711911e-30
-2.481829e-02 -2.040652e-30
-2.456829e-02 -1.745392e-30
-2.431829e-02 -7.415247e-31
-2.406829e-02 8.286549e-31
-2.381829e-02 2.578187e-30
-2.356829e-02 3.939878e-30
-2.331829e-02 4.314590e-30
-2.306829e-02 3.275245e-30
-2.281829e-02 7.701802e-31
-2.256829e-02 -2.747150e-30
-2.231829e-02 -6.330218e-30
-2.206829e-02 -8.731078e-30
-2.181829e-02 -8.755197e-30
-2.156829e-02 -5.701502e-30
-2.131829e-02 2.452888e-31
-2.106829e-02 7.823491e-30
-2.081829e-02 1.483056e-29
-2.056829e-02 1.863270e-29
-2.031828e-02 1.697416e-29
-2.006829e-02 8.883037e-30
-1.981829e-02 -4.619592e-30
-1.956829e-02 -2.031526e-29
-1.931829e-02 -3.330500e-29
-1.906829e-02 -3.826603e-29
-1.881829e-02 -3.121056e-29
-1.856828e-02 -1.126574e-29
-1.831829e-02 1.815225e-29
-1.806829e-02 4.935227e-29
-1.781829e-02 7.189339e-29
-1.756829e-02 7.550552e-29
-1.731829e-02 5.374366e-29
-1.706829e-02 7.301255e-30
-1.681828e-02 -5.428937e-29
-1.656829e-02 -1.136080e-28
-1.631829e-02 -1.493241e-28
-1.606829e-02 -1.426265e-28
-1.581829e-02 -8.449336e-29
-1.556829e-02 1.852762e-29
-1.531829e-02 1.424629e-28
-1.506829e-02 2.496739e-28
-1.481829e-02 2.984137e-28
-1.456829e-02 2.563347e-28
-1.431829e-02 1.142712e-28
-1.406829e-02 -1.045005e-28
-1.381829e-02 -3.439147e-28
-1.356828e-02 -5.261588e-28
-1.331829e-02 -5.731759e-28
-1.306829e-02 -4.338203e-28
-1.281829e-02 -1.085914e-28
-1.256830e-02 3.372954e-28
-1.231828e-02 7.800691e-28
-1.206829e-02 1.065561e-27
-1.181829e-02 1.055103e-27
-1.156829e-02 6.776769e-28
-1.131828e-02 -2.841595e-29
-1.106828e-02 -9.013784e-28
-1.081829e-02 -1.681162e-27
-1.056829e-02 -2.075184e-27
-1.031829e-02 -1.851749e-27
-1.006828e-02 -9.354013e-28
-9.818286e-03 5.284026e-28
-9.568289e-03 2.169223e-27
-9.318292e-03 3.464841e-27
-9.068280e-03 3.884719e-27
-8.818284e-03 3.071510e-27
-8.568287e-03 1.006618e-27
-8.318290e-03 -1.901435e-27
-8.068293e-03 -4.855228e-27
-7.818282e-03 -6.850235e-27
-7.568285e-03 -6.971838e-27
-7.318288e-03 -4.732304e-27
-7.068291e-03 -3.403545e-28
-6.818295e-03 5.205613e-27
-6.568283e-03 1.027481e-26
-6.318286e-03 1.301667e-26
-6.068289e-03 1.194661e-26
-5.818292e-03 6.541715e-27
-5.568281e-03 -2.354914e-27
-5.318284e-03 -1.250695e-26
-5.068287e-03 -2.072979e-26
-4.818290e-03 -2.376632e-26
-4.568294e-03 -1.938794e-26
-4.318282e-03 -7.394996e-27
-4.068285e-03 9.850891e-27
-3.818288e-03 2.765263e-26
-3.568292e-03 4.005906e-26
-3.318280e-03 4.161778e-26
-3.068283e-03 2.935578e-26
-2.818286e-03 4.354744e-27
-2.568290e-03 -2.771027e-26
-2.318293e-03 -5.748758e-26
-2.068281e-03 -7.432594e-26
-1.818284e-03 -6.962634e-26
-1.568288e-03 -4.023528e-26
-1.318291e-03 9.278912e-27
-1.068294e-03 6.648856e-26
-8.182824e-04 1.136263e-25
-5.682856e-04 1.324778e-25
-3.182888e-04 1.104954e-25
-6.829202e-05 4.630523e-26
1.817197e-04 -4.740964e-26
4.317164e-04 -1.451978e-25
6.817132e-04 -2.147569e-25
9.317100e-04 -2.264700e-25
1.181707e-03 -1.640419e-25
1.431718e-03 -3.288270e-26
1.681715e-03 1.371254e-25
1.931712e-03 2.966186e-25
2.181709e-03 3.893924e-25
2.431706e-03 3.700688e-25
2.681717e-03 2.217497e-25
2.931714e-03 -3.228973e-26
3.181711e-03 -3.281398e-25
3.431708e-03 -5.744970e-25
3.681719e-03 -6.779374e-25
3.931716e-03 -5.741272e-25
4.181713e-03 -2.555981e-25
4.431710e-03 2.140712e-25
4.681706e-03 7.072635e-25
4.931718e-03 1.062459e-24
5.181715e-03 1.131976e-24
5.431712e-03 8.347076e-25
5.681708e-03 1.969573e-25
5.931720e-03 -6.348569e-25
6.181717e-03 -1.419539e-24
6.431714e-03 -1.883667e-24
6.681710e-03 -1.807369e-24
6.931707e-03 -1.109203e-24
7.181719e-03 9.898645e-26
7.431716e-03 1.511680e-24
7.681713e-03 2.694435e-24
7.931709e-03 3.205043e-24
8.181706e-03 2.740887e-24
8.431718e-03 1.268133e-24
8.681715e-03 -9.147505e-25
8.931711e-03 -3.212939e-24
9.181708e-03 -4.878109e-24
9.431720e-03 -5.230437e-24
9.681717e-03 -3.900378e-24
9.931713e-03 -1.012105e-24
1.018171e-02 2.763886e-24
1.043171e-02 6.332090e-24
1.068172e-02 8.459041e-24
1.093172e-02 8.161217e-24
1.118171e-02 5.082017e-24
1.143171e-02 -2.707040e-25
1.168172e-02 -6.533083e-24
1.193172e-02 -1.178241e-23
1.218171e-02 -1.407705e-23
1.243171e-02 -1.210332e-23
1.268171e-02 -5.731537e-24
1.293172e-02 3.722050e-24
1.318172e-02 1.366958e-23
1.343171e-02 2.088385e-23
1.368171e-02 2.246090e-23
1.393171e-02 1.684922e-23
1.418172e-02 4.614559e-24
1.443172e-02 -1.136566e-23
1.468171e-02 -2.644580e-23
1.493171e-02 -3.544344e-23
1.518172e-02 -3.427414e-23
1.543172e-02 -2.150998e-23
1.568171e-02 6.693273e-25
1.593171e-02 2.656172e-23
1.618171e-02 4.821834e-23
1.643172e-02 5.769454e-23
1.668172e-02 4.969694e-23
1.693171e-02 2.381395e-23
1.718171e-02 -1.449051e-23
1.743171e-02 -5.467081e-23
1.768172e-02 -8.372020e-23
1.793171e-02 -9.007105e-23
1.818171e-02 -6.769130e-23
1.843171e-02 -1.904613e-23
1.868172e-02 4.425760e-23
1.893172e-02 1.037589e-22
1.918171e-02 1.390959e-22
1.943171e-02 1.344497e-22
1.968171e-02 8.456453e-23
1.993172e-02 -1.712306e-24
2.018172e-02 -1.019815e-22
2.043171e-02 -1.854279e-22
2.068171e-02 -2.216324e-22
2.093172e-02 -1.907161e-22
2.118172e-02 -9.169023e-23
2.143171e-02 5.406101e-23
2.168171e-02 2.061456e-22
2.193171e-02 3.153887e-22
2.218172e-02 3.386571e-22
2.243172e-02 2.541265e-22
2.268171e-02 7.200866e-23
2.293171e-02 -1.635839e-22
2.318171e-02 -3.836710e-22
2.343172e-02 -5.131710e-22
2.368172e-02 -4.947144e-22
2.393171e-02 -3.104656e-22
2.418171e-02 5.594467e-24
2.443172e-02 3.705522e-22
2.468172e-02 6.720697e-22
2.493171e-02 8.007614e-22
2.518171e-02 6.867390e-22
2.543171e-02 3.289536e-22
2.568172e-02 -1.935172e-22
2.593172e-02 -7.348746e-22
2.618171e-02 -1.120134e-21
2.643171e-02 -1.198171e-21
2.668172e-02 -8.952397e-22
2.693172e-02 -2.513719e-22
2.718171e-02 5.750403e-22
2.743171e-02 1.341016e-21
2.768171e-02 1.785787e-21
2.793172e-02 1.713864e-21
2.818172e-02 1.069331e-21
2.843171e-02 -2.424922e-23
2.868171e-02 -1.276986e-21
2.893171e-02 -2.302480e-21
2.918172e-02 -2.730089e-21
2.943172e-02 -2.329024e-21
2.968171e-02 -1.105346e-21
2.993171e-02 6.642313e-22
3.018172e-02 2.482455e-21
3.043172e-02 3.761458e-21
3.068171e-02 4.002106e-21
3.093171e-02 2.970899e-21
3.118171e-02 8.161203e-22
3.143172e-02 -1.924113e-21
3.168172e-02 -4.440503e-21
3.193171e-02 -5.877625e-21
3.218171e-02 -5.607310e-21
3.243172e-02 -3.467740e-21
3.268172e-02 1.153824e-22
3.293172e-02 4.182335e-21
3.318171e-02 7.475750e-21
3.343171e-02 8.808785e-21
3.368172e-02 7.463357e-21
3.393172e-02 3.492722e-21
3.418171e-02 -2.185136e-21
3.443171e-02 -7.963459e-21
3.468171e-02 -1.197305e-20
3.493172e-02 -1.265549e-20
3.518172e-02 -9.316126e-21
3.543171e-02 -2.473522e-21
3.568171e-02 6.138474e-21
3.593172e-02 1.396466e-20
3.618172e-02 1.834734e-20
3.643171e-02 1.737838e-20
3.668171e-02 1.062625e-20
3.693171e-02 -5.171872e-22
3.718172e-02 -1.303738e-20
3.743172e-02 -2.305417e-20
3.768171e-02 -2.696649e-20
3.793171e-02 -2.266329e-20
3.818171e-02 -1.041609e-20
3.843172e-02 6.883164e-21
3.868172e-02 2.430510e-20
3.893171e-02 3.620989e-20
3.918171e-02 3.798517e-20
3.943172e-02 2.768541e-20
3.968172e-02 7.024510e-21
3.993171e-02 -1.868771e-20
4.018171e-02 -4.178956e-20
4.043171e-02 -5.444159e-20
4.068172e-02 -5.114921e-20
4.093172e-02 -3.086054e-20
4.118171e-02 2.103431e-21
4.143171e-02 3.873841e-20
4.168172e-02 6.766332e-20
4.193172e-02 7.849919e-20
4.218172e-02 6.536792e-20
4.243171e-02 2.938975e-20
4.268171e-02 -2.077022e-20
4.293172e-02 -7.072574e-20
4.318172e-02 -1.042917e-19
4.343171e-02 -1.084978e-19
4.368171e-02 -7.820341e-20
4.393171e-02 -1.877173e-20
4.418172e-02 5.432025e-20
4.443172e-02 1.191995e-19
4.468171e-02 1.538622e-19
4.493171e-02 1.432779e-19
4.518172e-02 8.513554e-20
4.543172e-02 -7.796353e-21
4.568172e-02 -1.099034e-19
4.593171e-02 -1.893888e-19
4.618171e-02 -2.177768e-19
4.643172e-02 -1.795340e-19
4.668172e-02 -7.870386e-20
4.693171e-02 5.997176e-20
4.718171e-02 1.964729e-19
4.743172e-02 2.865406e-19
4.768172e-02 2.954441e-19
4.793172e-02 2.103615e-19
4.818171e-02 4.720248e-20
4.843171e-02 -1.510174e-19
4.868172e-02 -3.247413e-19
4.893172e-02 -4.150832e-19
4.918171e-02 -3.828908e-19
4.943171e-02 -2.237534e-19
4.968171e-02 2.639534e-20
4.993172e-02 2.980089e-19
5.018172e-02 5.063137e-19
5.043171e-02 5.767977e-19
5.068171e-02 4.704253e-19
5.093172e-02 2.004234e-19
5.118172e-02 -1.657932e-19
5.143172e-02 -5.219257e-19
5.168171e-02 -7.524151e-19
5.193171e-02 -7.685382e-19
5.218172e-02 -5.400915e-19
5.243172e-02 -1.119192e-19
5.268171e-02 4.017716e-19
5.293171e-02 8.460830e-19
5.318171e-02 1.070480e-18
5.343172e-02 9.776861e-19
5.368172e-02 5.610512e-19
5.393171e-02 -8.290661e-20
5.418171e-02 -7.737390e-19
5.443172e-02 -1.295398e-18
5.468172e-02 -1.461562e-18
5.493172e-02 -1.178799e-18
5.518171e-02 -4.870359e-19
5.543171e-02 4.382090e-19
5.568172e-02 1.326908e-18
5.593172e-02 1.890535e-18
5.618171e-02 1.912485e-18
5.643171e-02 1.325547e-18
5.668172e-02 2.500022e-19
5.693172e-02 -1.024135e-18
5.718172e-02 -2.111320e-18
5.743171e-02 -2.643447e-18
5.768171e-02 -2.389608e-18
5.793172e-02 -1.345089e-18
5.818172e-02 2.424131e-19
5.843171e-02 1.924700e-18
5.868171e-02 3.174687e-18
5.893171e-02 3.546504e-18
5.918172e-02 2.826889e-18
5.943172e-02 1.128419e-18
5.968171e-02 -1.111544e-18
5.993171e-02 -3.236021e-18
6.018172e-02 -4.554947e-18
6.043172e-02 -4.562178e-18
6.068172e-02 -3.116729e-18
6.093171e-02 -5.263033e-19
6.118171e-02 2.503603e-18
6.143172e-02 5.053349e-18
6.168172e-02 6.260188e-18
6.193171e-02 5.599686e-18
6.218171e-02 3.088300e-18
6.243172e-02 -6.658024e-19
6.268172e-02 -4.595506e-18
6.293172e-02 -7.467751e-18
6.318171e-02 -8.259819e-18
6.343171e-02 -6.506774e-18
6.368172e-02 -2.506895e-18
6.393172e-02 2.695728e-18
6.418172e-02 7.568233e-18
6.443171e-02 1.052763e-17
6.468171e-02 1.044009e-17
6.493172e-02 7.027341e-18
6.518172e-02 1.041151e-18
6.543171e-02 -5.873191e-18
6.568171e-02 -1.161091e-17
6.593172e-02 -1.423226e-17
6.618172e-02 -1.259612e-17
6.643172e-02 -6.802022e-18
6.668171e-02 1.719352e-18
6.693171e-02 1.053028e-17
6.718172e-02 1.686237e-17
6.743172e-02 1.846437e-17
6.768171e-02 1.436808e-17
6.793171e-02 5.321002e-18
6.818172e-02 -6.285729e-18
6.843172e-02 -1.701807e-17
6.868172e-02 -2.338906e-17
6.893171e-02 -2.296158e-17
6.918171e-02 -1.522257e-17
6.943172e-02 -1.928887e-18
6.968172e-02 1.323417e-17
6.993172e-02 2.563993e-17
7.018171e-02 3.109903e-17
7.043171e-02 2.723011e-17
7.068172e-02 1.438438e-17
7.093172e-02 -4.209762e-18
7.118171e-02 -2.320215e-17
7.143171e-02 -3.661973e-17
7.168172e-02 -3.970171e-17
7.193172e-02 -3.052064e-17
7.218172e-02 -1.085371e-17
7.243171e-02 1.403973e-17
7.268171e-02 3.676552e-17
7.293172e-02 4.994147e-17
7.318172e-02 4.853611e-17
7.343172e-02 3.167489e-17
7.368171e-02 3.292554e-18
7.393171e-02 -2.867876e-17
7.418172e-02 -5.445938e-17
7.443172e-02 -6.535188e-17
7.468171e-02 -5.658936e-17
7.493171e-02 -2.919117e-17
7.518172e-02 9.843546e-18
7.543172e-02 4.922024e-17
7.568172e-02 7.654039e-17
7.593171e-02 8.212363e-17
7.618171e-02 6.230479e-17
7.643172e-02 2.111714e-17
7.668172e-02 -3.030913e-17
7.693172e-02 -7.664669e-17
7.718171e-02 -1.028473e-16
7.743172e-02 -9.891525e-17
7.768172e-02 -6.349908e-17
7.793172e-02 -5.057506e-18
7.818171e-02 5.997054e-17
7.843171e-02 1.116692e-16
7.868172e-02 1.326335e-16
7.893172e-02 1.136701e-16
7.918172e-02 5.738636e-17
7.943171e-02 -2.164159e-17
7.968171e-02 -1.004571e-16
7.993172e-02 -1.542606e-16
8.018172e-02 -1.640649e-16
8.043171e-02 -1.231573e-16
8.068171e-02 -4.022751e-17
8.093172e-02 6.210778e-17
8.118172e-02 1.532788e-16
8.143172e-02 2.037373e-16
8.168171e-02 1.943407e-16
8.193171e-02 1.232140e-16
8.218172e-02 7.735913e-18
8.243172e-02 -1.193845e-16
8.268172e-02 -2.191647e-16
8.293171e-02 -2.581069e-16
8.318172e-02 -2.191706e-16
8.343172e-02 -1.084354e-16
8.368172e-02 4.498835e-17
8.393171e-02 1.962907e-16
8.418171e-02 2.978197e-16
8.443172e-02 3.138395e-16
8.468172e-02 2.326848e-16
8.493172e-02 7.229938e-17
8.518171e-02 -1.231062e-16
8.543171e-02 -2.949199e-16
8.568172e-02 -3.874320e-16
8.593172e-02 -3.655596e-16
8.618172e-02 -2.274395e-16
8.643171e-02 -7.558288e-18
8.668172e-02 2.313171e-16
8.693172e-02 4.157070e-16
8.718172e-02 4.836758e-16
8.743171e-02 4.051511e-16
8.768171e-02 1.937596e-16
8.793172e-02 -9.416760e-17
8.818172e-02 -3.740725e-16
8.843172e-02 -5.575984e-16
8.868171e-02 -5.800331e-16
8.893172e-02 -4.223547e-16
8.918172e-02 -1.205935e-16
8.943172e-02 2.413765e-16
8.968171e-02 5.546295e-16
8.993171e-02 7.174516e-16
9.018172e-02 6.677569e-16
9.043172e-02 4.054190e-16
9.068172e-02 -3.160969e-18
9.093171e-02 -4.410071e-16
9.118171e-02 -7.734749e-16
9.143172e-02 -8.890915e-16
9.168172e-02 -7.360524e-16
9.193172e-02 -3.426614e-16
9.218171e-02 1.858091e-16
9.243172e-02 6.945208e-16
9.268172e-02 1.023897e-15
9.293172e-02 1.059021e-15
9.318171e-02 7.685643e-16
9.343171e-02 2.202713e-16
9.368172e-02 -4.333700e-16
9.393172e-02 -9.968505e-16
9.418172e-02 -1.289609e-15
9.443171e-02 -1.203213e-15
9.468171e-02 -7.398675e-16
9.493172e-02 -1.903055e-17
9.518172e-02 7.521856e-16
9.543172e-02 1.337783e-15
9.568171e-02 1.544528e-15
9.593172e-02 1.284859e-15
9.618172e-02 6.109393e-16
9.643172e-02 -2.927471e-16
9.668171e-02 -1.158563e-15
9.693171e-02 -1.714020e-15
9.718172e-02 -1.766512e-15
9.743172e-02 -1.268557e-15
9.768172e-02 -3.418402e-16
9.793171e-02 7.501325e-16
9.818172e-02 1.675403e-15
9.843172e-02 2.133021e-15
9.868172e-02 1.949169e-15
9.893171e-02 1.139606e-15
9.918171e-02 -8.309054e-17
9.943172e-02 -1.363388e-15
9.968172e-02 -2.304580e-15
9.993172e-02 -2.590101e-15
1.001817e-01 -2.087339e-15
1.004317e-01 -9.006439e-16
1.006817e-01 6.461042e-16
1.009317e-01 2.096548e-15
1.011817e-01 2.995393e-15
1.014317e-01 3.030053e-15
1.016817e-01 2.136504e-15
1.019317e-01 5.342527e-16
1.021817e-01 -1.324656e-15
1.024317e-01 -2.882088e-15
1.026817e-01 -3.640529e-15
1.029317e-01 -3.321280e-15
1.031817e-01 -1.963463e-15
1.034317e-01 6.932562e-17
1.036817e-01 2.183445e-15
1.039317e-01 3.726167e-15
1.041817e-01 4.185404e-15
1.044317e-01 3.357193e-15
1.046817e-01 1.426758e-15
1.049317e-01 -1.066045e-15
1.051817e-01 -3.373848e-15
1.054317e-01 -4.762249e-15
1.056817e-01 -4.738543e-15
1.059317e-01 -3.219010e-15
1.061817e-01 -5.793643e-16
1.064317e-01 2.434682e-15
1.066817e-01 4.916265e-15
1.069317e-01 6.067319e-15
1.071817e-01 5.450875e-15
1.074317e-01 3.145382e-15
1.076817e-01 -2.511416e-16
1.079317e-01 -3.776833e-15
1.081817e-01 -6.381496e-15
1.084317e-01 -7.242805e-15
1.086817e-01 -6.028765e-15
1.089317e-01 -3.021899e-15
1.091817e-01 9.401783e-16
1.094317e-01 4.697661e-15
1.096817e-01 7.112053e-15
1.099317e-01 7.418622e-15
1.101817e-01 5.478550e-15
1.104317e-01 1.848641e-15
1.106817e-01 -2.363346e-15
1.109317e-01 -5.822429e-15
1.111817e-01 -7.376784e-15
1.114317e-01 -6.432537e-15
1.116817e-01 -3.172015e-15
1.119317e-01 1.459802e-15
1.121817e-01 6.009692e-15
1.124317e-01 8.945134e-15
1.126817e-01 9.133568e-15
1.129317e-01 6.226764e-15
1.131817e-01 8.247130e-16
1.134317e-01 -5.643831e-15
1.136817e-01 -1.130300e-14
1.139317e-01 -1.437099e-14
1.141817e-01 -1.370258e-14
1.144317e-01 -9.170924e-15
1.146817e-01 -1.762569e-15
1.149317e-01 6.658403e-15
1.151817e-01 1.385633e-14
1.154317e-01 1.786121e-14
1.156817e-01 1.754857e-14
1.159317e-01 1.298671e-14
1.161817e-01 5.434890e-15
1.164317e-01 -3.012542e-15
1.166817e-01 -1.004169e-14
1.169317e-01 -1.381377e-14
1.171817e-01 -1.352098e-14
1.174317e-01 -9.637072e-15
1.176817e-01 -3.763919e-15
1.179317e-01 1.878575e-15
1.181817e-01 5.179354e-15
1.184317e-01 4.856269e-15
1.186817e-01 9.312185e-16
1.189317e-01 -5.200236e-15
1.191817e-01 -1.113927e-14
1.194317e-01 -1.421824e-14
1.196817e-01 -1.237606e-14
1.199317e-01 -4.910297e-15
1.201817e-01 7.140682e-15
1.204317e-01 2.111796e-14
1.206817e-01 3.336557e-14
1.209317e-01 4.021214e-14
1.211817e-01 3.900616e-14
1.214317e-01 2.893059e-14
1.216817e-01 1.133143e-14
1.219317e-01 -1.056392e-14
1.221817e-01 -3.243768e-14
1.224317e-01 -5.000330e-14
1.226817e-01 -6.010217e-14
1.229317e-01 -6.144699e-14
1.231817e-01 -5.481672e-14
1.234317e-01 -4.260196e-14
1.236817e-01 -2.788216e-14
1.239317e-01 -1.328784e-14
1.241817e-01 -2.247963e-17
1.244317e-01 1.257031e-14
1.246817e-01 2.679907e-14
1.249317e-01 4.575596e-14
1.251817e-01 7.196918e-14
1.254317e-01 1.060838e-13
1.256817e-01 1.458784e-13
1.259317e-01 1.859918e-13
1.261817e-01 2.185072e-13
1.264317e-01 2.342184e-13
1.266817e-01 2.243942e-13
1.269317e-01 1.823957e-13
1.271817e-01 1.048362e-13
1.274317e-01 -8.137121e-15
1.276817e-01 -1.534682e-13
1.279317e-01 -3.265084e-13
1.281817e-01 -5.225705e-13
1.284317e-01 -7.385765e-13
1.286817e-01 -9.736633e-13
1.289317e-01 -1.229333e-12
1.291817e-01 -1.508530e-12
1.294317e-01 -1.813968e-12
1.296817e-01 -2.146735e-12
1.299317e-01 -2.504830e-12
1.301817e-01 -2.883184e-12
1.304317e-01 -3.274100e-12
1.306817e-01 -3.668851e-12
1.309317e-01 -4.059466e-12
1.311817e-01 -4.440785e-12
1.314317e-01 -4.811184e-12
1.316817e-01 -5.173010e-12
1.319317e-01 -5.531390e-12
1.321817e-01 -5.892398e-12
1.324317e-01 -6.261003e-12
1.326817e-01 -6.639222e-12
1.329317e-01 -7.025126e-12
1.331817e-01 -7.413750e-12
1.334317e-01 -7.797781e-12
1.336817e-01 -8.170012e-12
1.339317e-01 -8.525916e-12
1.341817e-01 -8.864865e-12
1.344317e-01 -9.190509e-12
1.346817e-01 -9.510288e-12
1.349317e-01 -9.833336e-12
1.351817e-01 -1.016809e-11
1.354317e-01 -1.051999e-11
1.356817e-01 -1.089005e-11
1.359317e-01 -1.127472e-11
1.361817e-01 -1.166658e-11
1.364317e-01 -1.205711e-11
1.366817e-01 -1.243921e-11
1.369317e-01 -1.280886e-11
1.371817e-01 -1.316636e-11
1.374317e-01 -1.351627e-11
1.376817e-01 -1.386518e-11
1.379317e-01 -1.421926e-11
1.381817e-01 -1.458239e-11
1.384317e-01 -1.495369e-11
1.386817e-01 -1.532781e-11
1.389317e-01 -1.569536e-11
1.391817e-01 -1.604575e-11
1.394317e-01 -1.636986e-11
1.396817e-01 -1.666304e-11