-1.388183e-01 0.000000e+00
-1.385683e-01 0.000000e+00
-1.383183e-01 0.000000e+00
-1.380683e-01 0.000000e+00
-1.378183e-01 0.000000e+00
-1.375683e-01 0.000000e+00
-1.373183e-01 0.000000e+00
-1.370683e-01 0.000000e+00
-1.368183e-01 0.000000e+00
-1.365683e-01 0.000000e+00
-1.363183e-01 0.000000e+00
-1.360683e-01 0.000000e+00
-1.358183e-01 0.000000e+00
-1.355683e-01 0.000000e+00
-1.353183e-01 0.000000e+00
-1.350683e-01 0.000000e+00
-1.348183e-01 0.000000e+00
-1.345683e-01 0.000000e+00
-1.343183e-01 0.000000e+00
-1.340683e-01 0.000000e+00
-1.338183e-01 0.000000e+00
-1.335683e-01 0.000000e+00
-1.333183e-01 0.000000e+00
-1.330683e-01 0.000000e+00
-1.328183e-01 0.000000e+00
-1.325683e-01 0.000000e+00
-1.323183e-01 0.000000e+00
-1.320683e-01 0.000000e+00
-1.318183e-01 0.000000e+00
-1.315683e-01 0.000000e+00
-1.313183e-01 0.000000e+00
-1.310683e-01 0.000000e+00
-1.308183e-01 0.000000e+00
-1.305683e-01 0.000000e+00
-1.303183e-01 0.000000e+00
-1.300683e-01 0.000000e+00
-1.298183e-01 0.000000e+00
-1.295683e-01 0.000000e+00
-1.293183e-01 0.000000e+00
-1.290683e-01 0.000000e+00
-1.288183e-01 0.000000e+00
-1.285683e-01 0.000000e+00
-1.283183e-01 0.000000e+00
-1.280683e-01 0.000000e+00
-1.278183e-01 0.000000e+00
-1.275683e-01 0.000000e+00
-1.273183e-01 0.000000e+00
-1.270683e-01 0.000000e+00
-1.268183e-01 0.000000e+00
-1.265683e-01 0.000000e+00
-1.263183e-01 0.000000e+00
-1.260683e-01 0.000000e+00
-1.258183e-01 0.000000e+00
-1.255683e-01 0.000000e+00
-1.253183e-01 0.000000e+00
-1.250683e-01 0.000000e+00
-1.248183e-01 0.000000e+00
-1.245683e-01 0.000000e+00
-1.243183e-01 0.000000e+00
-1.240683e-01 0.000000e+00
-1.238183e-01 0.000000e+00
-1.235683e-01 0.000000e+00
-1.233183e-01 0.000000e+00
-1.230683e-01 0.000000e+00
-1.228183e-01 0.000000e+00
-1.225683e-01 0.000000e+00
-1.223183e-01 0.000000e+00
-1.220683e-01 0.000000e+00
-1.218183e-01 0.000000e+00
-1.215683e-01 0.000000e+00
-1.213183e-01 0.000000e+00
-1.210683e-01 0.000000e+00
-1.208183e-01 0.000000e+00
-1.205683e-01 0.000000e+00
-1.203183e-01 0.000000e+00
-1.200683e-01 0.000000e+00
-1.198183e-01 0.000000e+00
-1.195683e-01 0.000000e+00
-1.193183e-01 0.000000e+00
-1.190683e-01 0.000000e+00
-1.188183e-01 0.000000e+00
-1.185683e-01 0.000000e+00
-1.183183e-01 0.000000e+00
-1.180683e-01 0.000000e+00
-1.178183e-01 0.000000e+00
-1.175683e-01 0.000000e+00
-1.173183e-01 0.000000e+00
-1.170683e-01 0.000000e+00
-1.168183e-01 0.000000e+00
-1.165683e-01 0.000000e+00
-1.163183e-01 0.000000e+00
-1.160683e-01 0.000000e+00
-1.158183e-01 0.000000e+00
-1.155683e-01 0.000000e+00
-1.153183e-01 0.000000e+00
-1.150683e-01 0.000000e+00
-1.148183e-01 0.000000e+00
-1.145683e-01 0.000000e+00
-1.143183e-01 0.000000e+00
-1.140683e-01 0.000000e+00
-1.138183e-01 0.000000e+00
-1.135683e-01 0.000000e+00
-1.133183e-01 0.000000e+00
-1.130683e-01 0.000000e+00
-1.128183e-01 0.000000e+00
-1.125683e-01 0.000000e+00
-1.123183e-01 0.000000e+00
-1.120683e-01 0.000000e+00
-1.118183e-01 0.000000e+00
-1.115683e-01 0.000000e+00
-1.113183e-01 0.000000e+00
-1.110683e-01 0.000000e+00
-1.108183e-01 0.000000e+00
-1.105683e-01 0.000000e+00
-1.103183e-01 0.000000e+00
-1.100683e-01 0.000000e+00
-1.098183e-01 0.000000e+00
-1.095683e-01 0.000000e+00
-1.093183e-01 0.000000e+00
-1.090683e-01 0.000000e+00
-1.088183e-01 0.000000e+00
-1.085683e-01 0.000000e+00
-1.083183e-01 0.000000e+00
-1.080683e-01 0.000000e+00
-1.078183e-01 0.000000e+00
-1.075683e-01 0.000000e+00
-1.073183e-01 0.000000e+00
-1.070683e-01 0.000000e+00
-1.068183e-01 0.000000e+00
-1.065683e-01 0.000000e+00
-1.063183e-01 0.000000e+00
-1.060683e-01 0.000000e+00
-1.058183e-01 0.000000e+00
-1.055683e-01 0.000000e+00
-1.053183e-01 0.000000e+00
-1.050683e-01 0.000000e+00
-1.048183e-01 0.000000e+00
-1.045683e-01 0.000000e+00
-1.043183e-01 0.000000e+00
-1.040683e-01 0.000000e+00
-1.038183e-01 0.000000e+00
-1.035683e-01 0.000000e+00
-1.033183e-01 0.000000e+00
-1.030683e-01 0.000000e+00
-1.028183e-01 0.000000e+00
-1.025683e-01 0.000000e+00
-1.023183e-01 0.000000e+00
-1.020683e-01 0.000000e+00
-1.018183e-01 0.000000e+00
-1.015683e-01 0.000000e+00
-1.013183e-01 0.000000e+00
-1.010683e-01 0.000000e+00
-1.008183e-01 0.000000e+00
-1.005683e-01 0.000000e+00
-1.003183e-01 0.000000e+00
-1.000683e-01 0.000000e+00
-9.981829e-02 0.000000e+00
-9.956829e-02 0.000000e+00
-9.931830e-02 0.000000e+00
-9.906829e-02 0.000000e+00
-9.881829e-02 0.000000e+00
-9.856829e-02 0.000000e+00
-9.831829e-02 0.000000e+00
-9.806830e-02 0.000000e+00
-9.781829e-02 0.000000e+00
-9.756829e-02 0.000000e+00
-9.731829e-02 0.000000e+00
-9.706829e-02 0.000000e+00
-9.681829e-02 0.000000e+00
-9.656829e-02 0.000000e+00
-9.631829e-02 0.000000e+00
-9.606829e-02 0.000000e+00
-9.581830e-02 0.000000e+00
-9.556829e-02 0.000000e+00
-9.531829e-02 0.000000e+00
-9.506829e-02 0.000000e+00
-9.481829e-02 0.000000e+00
-9.456830e-02 0.000000e+00
-9.431829e-02 0.000000e+00
-9.406829e-02 0.000000e+00
-9.381829e-02 0.000000e+00
-9.356830e-02 0.000000e+00
-9.331829e-02 0.000000e+00
-9.306829e-02 0.000000e+00
-9.281829e-02 0.000000e+00
-9.256829e-02 0.000000e+00
-9.231830e-02 0.000000e+00
-9.206829e-02 0.000000e+00
-9.181829e-02 0.000000e+00
-9.156829e-02 0.000000e+00
-9.131829e-02 0.000000e+00
-9.106829e-02 0.000000e+00
-9.081829e-02 0.000000e+00
-9.056829e-02 0.000000e+00
-9.031829e-02 0.000000e+00
-9.006830e-02 0.000000e+00
-8.981829e-02 0.000000e+00
-8.956829e-02 0.000000e+00
-8.931829e-02 0.000000e+00
-8.906829e-02 0.000000e+00
-8.881830e-02 0.000000e+00
-8.856829e-02 0.000000e+00
-8.831829e-02 0.000000e+00
-8.806829e-02 0.000000e+00
-8.781829e-02 0.000000e+00
-8.756829e-02 0.000000e+00
-8.731829e-02 0.000000e+00
-8.706829e-02 0.000000e+00
-8.681829e-02 0.000000e+00
-8.656830e-02 0.000000e+00
-8.631829e-02 0.000000e+00
-8.606829e-02 0.000000e+00
-8.581829e-02 0.000000e+00
-8.556829e-02 0.000000e+00
-8.531829e-02 0.000000e+00
-8.506829e-02 0.000000e+00
-8.481829e-02 0.000000e+00
-8.456829e-02 0.000000e+00
-8.431830e-02 0.000000e+00
-8.406829e-02 0.000000e+00
-8.381829e-02 0.000000e+00
-8.356829e-02 0.000000e+00
-8.331829e-02 0.000000e+00
-8.306830e-02 0.000000e+00
-8.281829e-02 0.000000e+00
-8.256829e-02 0.000000e+00
-8.231829e-02 0.000000e+00
-8.206829e-02 0.000000e+00
-8.181829e-02 0.000000e+00
-8.156829e-02 0.000000e+00
-8.131829e-02 0.000000e+00
-8.106829e-02 0.000000e+00
-8.081830e-02 0.000000e+00
-8.056829e-02 0.000000e+00
-8.031829e-02 0.000000e+00
-8.006829e-02 0.000000e+00
-7.981829e-02 0.000000e+00
-7.956829e-02 0.000000e+00
-7.931829e-02 0.000000e+00
-7.906829e-02 0.000000e+00
-7.881829e-02 0.000000e+00
-7.856829e-02 0.000000e+00
-7.831829e-02 0.000000e+00
-7.806829e-02 0.000000e+00
-7.781829e-02 0.000000e+00
-7.756829e-02 0.000000e+00
-7.731830e-02 0.000000e+00
-7.706829e-02 0.000000e+00
-7.681829e-02 0.000000e+00
-7.656829e-02 0.000000e+00
-7.631829e-02 0.000000e+00
-7.606829e-02 0.000000e+00
-7.581829e-02 0.000000e+00
-7.556829e-02 1.401298e-45
-7.531829e-02 0.000000e+00
-7.506829e-02 0.000000e+00
-7.481829e-02 2.802597e-45
-7.456829e-02 2.802597e-45
-7.431829e-02 4.203895e-45
-7.406829e-02 2.802597e-45
-7.381829e-02 2.802597e-45
-7.356829e-02 -2.802597e-45
-7.331829e-02 -1.121039e-44
-7.306829e-02 -1.961818e-44
-7.281829e-02 -2.802597e-44
-7.256829e-02 -2.662467e-44
-7.231829e-02 -8.407791e-45
-7.206829e-02 2.662467e-44
-7.181829e-02 7.567012e-44
-7.156829e-02 1.233143e-43
-7.131829e-02 1.429324e-43
-7.106829e-02 1.079000e-43
-7.081829e-02 -9.809089e-45
-7.056829e-02 -2.143987e-43
-7.031829e-02 -4.638298e-43
-7.006829e-02 -6.740246e-43
-6.981829e-02 -7.034518e-43
-6.956829e-02 -4.007714e-43
-6.931829e-02 3.180948e-43
-6.906829e-02 1.416713e-42
-6.881829e-02 2.628836e-42
-6.856829e-02 3.434583e-42
-6.831829e-02 3.148718e-42
-6.806829e-02 1.121039e-42
-6.781829e-02 -2.910497e-42
-6.756829e-02 -8.423205e-42
-6.731829e-02 -1.379999e-41
-6.706829e-02 -1.633634e-41
-6.681829e-02 -1.282889e-41
-6.656829e-02 -7.440895e-43
-6.631829e-02 2.010163e-41
-6.606829e-02 4.582386e-41
-6.581829e-02 6.754819e-41
-6.556829e-02 7.226776e-41
-6.531829e-02 4.622603e-41
-6.506829e-02 -1.907868e-41
-6.481829e-02 -1.193416e-40
-6.456829e-02 -2.310181e-40
-6.431829e-02 -3.096323e-40
-6.406829e-02 -2.968693e-40
-6.381829e-02 -1.387426e-40
-6.356829e-02 1.864680e-40
-6.331829e-02 6.373386e-40
-6.306829e-02 1.087906e-39
-6.281829e-02 1.331772e-39
-6.256829e-02 1.125898e-39
-6.231829e-02 2.789341e-40
-6.206829e-02 -1.228878e-39
-6.181829e-02 -3.129542e-39
-6.156829e-02 -4.810390e-39
-6.131829e-02 -5.378936e-39
-6.106829e-02 -3.894403e-39
-6.081829e-02 2.376154e-40
-6.056829e-02 6.787422e-39
-6.031829e-02 1.430618e-38
-6.006829e-02 2.004109e-38
-5.981829e-02 2.038362e-38
-5.956829e-02 1.196615e-38
-5.931829e-02 -6.701361e-39
-5.906829e-02 -3.346741e-38
-5.881829e-02 -6.135822e-38
-5.856829e-02 -7.884242e-38
-5.831829e-02 -7.225793e-38
-5.806829e-02 -3.057144e-38
-5.781829e-02 4.829405e-38
-5.756829e-02 1.514519e-37
-5.731829e-02 2.481787e-37
-5.706829e-02 2.931921e-37
-5.681829e-02 2.380913e-37
-5.656829e-02 5.051901e-38
-5.631829e-02 -2.629970e-37
-5.606829e-02 -6.383945e-37
-5.581829e-02 -9.499678e-37
-5.556829e-02 -1.030498e-36
-5.531829e-02 -7.200919e-37
-5.506829e-02 6.175148e-38
-5.481829e-02 1.239249e-36
-5.456829e-02 2.528905e-36
-5.431829e-02 3.448983e-36
-5.406829e-02 3.418007e-36
-5.381829e-02 1.947273e-36
-5.356829e-02 -1.105102e-36
-5.331829e-02 -5.293920e-36
-5.306829e-02 -9.468991e-36
-5.281829e-02 -1.189216e-35
-5.256829e-02 -1.066046e-35
-5.231829e-02 -4.413855e-36
-5.206829e-02 6.824131e-36
-5.181829e-02 2.095712e-35
-5.156829e-02 3.364111e-35
-5.131829e-02 3.895387e-35
-5.106829e-02 3.104999e-35
-5.081829e-02 6.603183e-36
-5.056829e-02 -3.258732e-35
-5.031829e-02 -7.782182e-35
-5.006829e-02 -1.136930e-34
-4.981829e-02 -1.211211e-34
-4.956829e-02 -8.335571e-35
-4.931829e-02 6.091623e-36
-4.906829e-02 1.359076e-34
-4.881829e-02 2.730955e-34
-4.856829e-02 3.660637e-34
-4.831829e-02 3.567066e-34
-4.806829e-02 2.007825e-34
-4.781829e-02 -1.078137e-34
-4.756829e-02 -5.169003e-34
-4.731829e-02 -9.100290e-34
-4.706829e-02 -1.123597e-33
-4.681829e-02 -9.907071e-34
-4.656829e-02 -4.062975e-34
-4.631829e-02 6.029798e-34
-4.606829e-02 1.830010e-33
-4.581829e-02 2.888586e-33
-4.556829e-02 3.286697e-33
-4.531829e-02 2.574433e-33
-4.506829e-02 5.405393e-34
-4.481829e-02 -2.599175e-33
-4.456829e-02 -6.099962e-33
-4.431829e-02 -8.750936e-33
-4.406829e-02 -9.149007e-33
-4.381829e-02 -6.166823e-33
-4.356829e-02 4.868291e-34
-4.331829e-02 9.795547e-33
-4.306829e-02 1.927628e-32
-4.281829e-02 2.532757e-32
-4.256829e-02 2.416226e-32
-4.231829e-02 1.320401e-32
-4.206829e-02 -7.405261e-33
-4.181829e-02 -3.373066e-32
-4.156829e-02 -5.800094e-32
-4.131829e-02 -7.003819e-32
-4.106829e-02 -6.020804e-32
-4.081829e-02 -2.336303e-32
-4.056829e-02 3.734904e-32
-4.031829e-02 1.083440e-31
-4.006829e-02 1.666289e-31
-3.981829e-02 1.848703e-31
-3.956829e-02 1.401564e-31
-3.931829e-02 2.453792e-32
-3.906829e-02 -1.460137e-31
-3.881829e-02 -3.283046e-31
-3.856829e-02 -4.577600e-31
-3.831829e-02 -4.647317e-31
-3.806829e-02 -2.990798e-31
-3.781829e-02 4.319698e-32
-3.756829e-02 5.006867e-31
-3.731829e-02 9.448420e-31
-3.706829e-02 1.203162e-30
-3.681829e-02 1.107903e-30
-3.656829e-02 5.613948e-31
-3.631829e-02 -4.006363e-31
-3.606829e-02 -1.572586e-30
-3.581829e-02 -2.593212e-30
-3.556829e-02 -3.024046e-30
-3.531829e-02 -2.486009e-30
-3.506829e-02 -8.239386e-31
-3.481829e-02 1.752977e-30
-3.456829e-02 4.616757e-30
-3.431829e-02 6.804007e-30
-3.406829e-02 7.255634e-30
-3.381829e-02 5.178955e-30
-3.356829e-02 4.398450e-31
-3.331829e-02 -6.151782e-30
-3.306829e-02 -1.280848e-29
-3.281829e-02 -1.708569e-29
-3.256829e-02 -1.656100e-29
-3.231829e-02 -9.743895e-30
-3.206829e-02 3.043649e-30
-3.181829e-02 1.915530e-29
-3.156829e-02 3.379657e-29
-3.131829e-02 4.106144e-29
-3.106829e-02 3.573915e-29
-3.081829e-02 1.548242e-29
-3.056829e-02 -1.734672e-29
-3.031829e-02 -5.494968e-29
-3.006829e-02 -8.513207e-29
-2.981829e-02 -9.432292e-29
-2.956829e-02 -7.211762e-29
-2.931829e-02 -1.617044e-29
-2.906829e-02 6.425806e-29
-2.881829e-02 1.478586e-28
-2.856829e-02 2.051266e-28
-2.831829e-02 2.065030e-28
-2.806829e-02 1.332046e-28
-2.781828e-02 -1.237107e-29
-2.756829e-02 -2.006396e-28
-2.731829e-02 -3.768604e-28
-2.706829e-02 -4.730517e-28
-2.681829e-02 -4.285912e-28
-2.656829e-02 -2.147157e-28
-2.631829e-02 1.448284e-28
-2.606829e-02 5.657795e-28
-2.581829e-02 9.149422e-28
-2.556829e-02 1.043290e-27
-2.531829e-02 8.352365e-28
-2.506829e-02 2.611211e-28
-2.481829e-02 -5.852675e-28
-2.456829e-02 -1.482482e-27
-2.431829e-02 -2.122355e-27
-2.406829e-02 -2.195081e-27
-2.381829e-02 -1.500983e-27
-2.356829e-02 -5.644667e-29
-2.331829e-02 1.846309e-27
-2.306829e-02 3.661355e-27
-2.281829e-02 4.709787e-27
-2.256829e-02 4.384948e-27
-2.231829e-02 2.393011e-27
-2.206829e-02 -1.047715e-27
-2.181829e-02 -5.133260e-27
-2.156829e-02 -8.590176e-27
-2.131829e-02 -9.995455e-27
-2.106829e-02 -8.244475e-27
-2.081829e-02 -3.041326e-27
-2.056829e-02 4.759008e-27
-2.031828e-02 1.312322e-26
-2.006829e-02 1.922814e-26
-1.981829e-02 2.024531e-26
-1.956829e-02 1.435309e-26
-1.931829e-02 1.677257e-27
-1.906829e-02 -1.519853e-26
-1.881829e-02 -3.145852e-26
-1.856828e-02 -4.114453e-26
-1.831829e-02 -3.896234e-26
-1.806829e-02 -2.235869e-26
-1.781829e-02 6.800138e-27
-1.756829e-02 4.166092e-26
-1.731829e-02 7.143985e-26
-1.706829e-02 8.417540e-26
-1.681828e-02 7.066163e-26
-1.656829e-02 2.848139e-26
-1.631829e-02 -3.527430e-26
-1.606829e-02 -1.039310e-25
-1.581829e-02 -1.545469e-25
-1.556829e-02 -1.643582e-25
-1.531829e-02 -1.189042e-25
-1.506829e-02 -1.938828e-26
-1.481829e-02 1.135482e-25
-1.456829e-02 2.419448e-25
-1.431829e-02 3.193499e-25
-1.406829e-02 3.050029e-25
-1.381829e-02 1.797531e-25
-1.356828e-02 -4.148083e-26
-1.331829e-02 -3.060396e-25
-1.306829e-02 -5.322445e-25
-1.281829e-02 -6.306571e-25
-1.256830e-02 -5.336061e-25
-1.231828e-02 -2.246747e-25
-1.206829e-02 2.423005e-25
-1.181829e-02 7.441336e-25
-1.156829e-02 1.113885e-24
-1.131828e-02 1.188422e-24
-1.106828e-02 8.667369e-25
-1.081829e-02 1.611876e-25
-1.056829e-02 -7.782183e-25
-1.031829e-02 -1.681842e-24
-1.006828e-02 -2.225023e-24
-9.818286e-03 -2.128181e-24
-9.568289e-03 -1.266046e-24
-9.318292e-03 2.501597e-25
-9.068280e-03 2.053171e-24
-8.818284e-03 3.585107e-24
-8.568287e-03 4.245816e-24
-8.318290e-03 3.592372e-24
-8.068293e-03 1.532236e-24
-7.818282e-03 -1.559224e-24
-7.568285e-03 -4.856406e-24
-7.318288e-03 -7.262877e-24
-7.068291e-03 -7.728646e-24
-6.818295e-03 -5.627395e-24
-6.568283e-03 -1.076049e-24
-6.318286e-03 4.928898e-24
-6.068289e-03 1.064947e-23
-5.818292e-03 1.403555e-23
-5.568281e-03 1.336444e-23
-5.318284e-03 7.916767e-24
-5.068287e-03 -1.538448e-24
-4.818290e-03 -1.266338e-23
-4.568294e-03 -2.199805e-23
-4.318282e-03 -2.590088e-23
-4.068285e-03 -2.176997e-23
-3.818288e-03 -9.184902e-24
-3.568292e-03 9.446605e-24
-3.318280e-03 2.907552e-23
-3.068283e-03 4.315740e-23
-2.818286e-03 4.557763e-23
-2.568290e-03 3.286445e-23
-2.318293e-03 5.986574e-24
-2.068281e-03 -2.898199e-23
-1.818284e-03 -6.181513e-23
-1.568288e-03 -8.073798e-23
-1.318291e-03 -7.614684e-23
-1.068294e-03 -4.440573e-23
-8.182824e-04 9.577500e-24
-5.682856e-04 7.215753e-23
-3.182888e-04 1.237320e-22
-6.829202e-05 1.441881e-22
1.817197e-04 1.197176e-22
4.317164e-04 4.894325e-23
6.817132e-04 -5.390681e-23
9.317100e-04 -1.605149e-22
1.181707e-03 -2.351686e-22
1.431718e-03 -2.454435e-22
1.681715e-03 -1.740465e-22
1.931712e-03 -2.798734e-23
2.181709e-03 1.586498e-22
2.431706e-03 3.306523e-22
2.681717e-03 4.261423e-22
2.931714e-03 3.963851e-22
3.181711e-03 2.252531e-22
3.431708e-03 -5.841298e-23
3.681719e-03 -3.812832e-22
3.931716e-03 -6.413716e-22
4.181713e-03 -7.369795e-22
4.431710e-03 -6.015390e-22
4.681706e-03 -2.336196e-22
4.931718e-03 2.891866e-22
5.181715e-03 8.205705e-22
5.431712e-03 1.181426e-21
5.681708e-03 1.214306e-21
5.931720e-03 8.415490e-22
6.181717e-03 1.079202e-22
6.431714e-03 -8.099470e-22
6.681710e-03 -1.637225e-21
6.931707e-03 -2.074840e-21
7.181719e-03 -1.896481e-21
7.431716e-03 -1.040152e-21
7.681713e-03 3.380847e-22
7.931709e-03 1.874023e-21
8.181706e-03 3.078075e-21
8.431718e-03 3.477034e-21
8.681715e-03 2.778099e-21
8.931711e-03 1.003622e-21
9.181708e-03 -1.455038e-21
9.431720e-03 -3.898638e-21
9.681717e-03 -5.497675e-21
9.931713e-03 -5.548604e-21
1.018171e-02 -3.736649e-21
1.043171e-02 -3.171427e-22
1.068172e-02 3.861894e-21
1.093172e-02 7.533925e-21
1.118171e-02 9.363149e-21
1.143171e-02 8.383524e-21
1.168172e-02 4.395544e-21
1.193172e-02 -1.821846e-21
1.218171e-02 -8.590801e-21
1.243171e-02 -1.373337e-20
1.268171e-02 -1.521402e-20
1.293172e-02 -1.185373e-20
1.318172e-02 -3.887014e-21
1.343171e-02 6.855680e-21
1.368171e-02 1.727132e-20
1.393171e-02 2.379693e-20
1.418172e-02 2.352678e-20
1.443172e-02 1.531189e-20
1.468171e-02 4.673975e-22
1.493171e-02 -1.722295e-20
1.518172e-02 -3.233386e-20
1.543172e-02 -3.932838e-20
1.568171e-02 -3.440125e-20
1.593171e-02 -1.706963e-20
1.618171e-02 9.070049e-21
1.643172e-02 3.682351e-20
1.668172e-02 5.717669e-20
1.693171e-02 6.200143e-20
1.718171e-02 4.694201e-20
1.743171e-02 1.354234e-20
1.768172e-02 -3.023573e-20
1.793171e-02 -7.155955e-20
1.818171e-02 -9.617939e-20
1.843171e-02 -9.295976e-20
1.868172e-02 -5.815270e-20
1.893172e-02 2.067817e-21
1.918171e-02 7.196194e-20
1.943171e-02 1.298494e-19
1.968171e-02 1.543482e-19
1.993172e-02 1.315824e-19
2.018172e-02 6.110324e-20
2.043171e-02 -4.167768e-20
2.068171e-02 -1.479534e-19
2.093172e-02 -2.228870e-19
2.118172e-02 -2.362363e-19
2.143171e-02 -1.732277e-19
2.168171e-02 -4.208029e-20
2.193171e-02 1.248989e-19
2.218172e-02 2.780866e-19
2.243172e-02 3.642256e-19
2.268171e-02 3.435853e-19
2.293171e-02 2.054415e-19
2.318171e-02 -2.357693e-20
2.343172e-02 -2.822356e-19
2.368172e-02 -4.894332e-19
2.393171e-02 -5.679716e-19
2.418171e-02 -4.708909e-19
2.443172e-02 -2.020011e-19
2.468172e-02 1.771815e-19
2.493171e-02 5.585972e-19
2.518171e-02 8.160987e-19
2.543171e-02 8.444886e-19
2.568172e-02 5.978262e-19
2.593172e-02 1.141264e-19
2.618171e-02 -4.839352e-19
2.643171e-02 -1.016355e-18
2.668172e-02 -1.296502e-18
2.693172e-02 -1.192009e-18
2.718171e-02 -6.771992e-19
2.743171e-02 1.417017e-19
2.768171e-02 1.041214e-18
2.793172e-02 1.736440e-18
2.818172e-02 1.965945e-18
2.843171e-02 1.581995e-18
2.868171e-02 6.170100e-19
2.893171e-02 -6.994701e-19
2.918172e-02 -1.986553e-18
2.943172e-02 -2.814895e-18
2.968171e-02 -2.841357e-18
2.993171e-02 -1.935577e-18
3.018172e-02 -2.553074e-19
3.043172e-02 1.762205e-18
3.068171e-02 3.502609e-18
3.093171e-02 4.350805e-18
3.118171e-02 3.893968e-18
3.143172e-02 2.088056e-18
3.168172e-02 -6.727591e-19
3.193171e-02 -3.621115e-18
3.218171e-02 -5.814381e-18
3.243172e-02 -6.419675e-18
3.268172e-02 -5.004626e-18
3.293172e-02 -1.738663e-18
3.318171e-02 2.574792e-18
3.343171e-02 6.670532e-18
3.368172e-02 9.171116e-18
3.393172e-02 9.024147e-18
3.418171e-02 5.895711e-18
3.443171e-02 3.838472e-19
3.468171e-02 -6.044234e-18
3.493172e-02 -1.141017e-17
3.518172e-02 -1.380193e-17
3.543171e-02 -1.201189e-17
3.568171e-02 -6.033777e-18
3.593172e-02 2.764997e-18
3.618172e-02 1.189850e-17
3.643171e-02 1.842111e-17
3.668171e-02 1.983001e-17
3.693171e-02 1.494881e-17
3.718172e-02 4.498743e-18
3.743172e-02 -8.873689e-18
3.768171e-02 -2.119742e-17
3.793171e-02 -2.829559e-17
3.818171e-02 -2.712632e-17
3.843172e-02 -1.693594e-17
3.868172e-02 1.800942e-19
3.893171e-02 1.957368e-17
3.918171e-02 3.521799e-17
3.943172e-02 4.149299e-17
3.968172e-02 3.508036e-17
3.993171e-02 1.636048e-17
4.018171e-02 -1.021288e-17
4.043171e-02 -3.702166e-17
4.068172e-02 -5.535006e-17
4.093172e-02 -5.808722e-17
4.118171e-02 -4.226518e-17
4.143171e-02 -1.057944e-17
4.168172e-02 2.874080e-17
4.193172e-02 6.388887e-17
4.218172e-02 8.286408e-17
4.243171e-02 7.736375e-17
4.268171e-02 4.597730e-17
4.293172e-02 -4.453008e-18
4.318172e-02 -5.998878e-17
4.343171e-02 -1.032192e-16
4.368171e-02 -1.184882e-16
4.393171e-02 -9.722363e-17
4.418172e-02 -4.164392e-17
4.443172e-02 3.457973e-17
4.468171e-02 1.093098e-16
4.493171e-02 1.580709e-16
4.518172e-02 1.617203e-16
4.543172e-02 1.133562e-16
4.568172e-02 2.211264e-17
4.593171e-02 -8.778832e-17
4.618171e-02 -1.830169e-16
4.643172e-02 -2.308314e-16
4.668172e-02 -2.097964e-16
4.693171e-02 -1.181610e-16
4.718171e-02 2.312424e-17
4.743172e-02 1.743979e-16
4.768172e-02 2.878569e-16
4.793172e-02 3.220763e-16
4.818171e-02 2.562422e-16
4.843171e-02 9.943531e-17
4.868172e-02 -1.086621e-16
4.893172e-02 -3.069109e-16
4.918171e-02 -4.299390e-16
4.943171e-02 -4.288286e-16
4.968171e-02 -2.889648e-16
4.993172e-02 -3.890545e-17
5.018172e-02 2.536876e-16
5.043171e-02 4.992872e-16
5.068171e-02 6.128897e-16
5.093172e-02 5.420856e-16
5.118172e-02 2.878948e-16
5.143172e-02 -8.923328e-17
5.168171e-02 -4.819715e-16
5.193171e-02 -7.653245e-16
5.218172e-02 -8.349911e-16
5.243172e-02 -6.435203e-16
5.268171e-02 -2.222888e-16
5.293171e-02 3.194730e-16
5.318171e-02 8.209552e-16
5.343172e-02 1.115769e-15
5.368172e-02 1.085057e-15
5.393171e-02 7.013576e-16
5.418171e-02 4.794258e-17
5.443172e-02 -6.954033e-16
5.468172e-02 -1.299420e-15
5.493172e-02 -1.553738e-15
5.518171e-02 -1.336899e-15
5.543171e-02 -6.655810e-16
5.568172e-02 2.952165e-16
5.593172e-02 1.268722e-15
5.618171e-02 1.943100e-15
5.643171e-02 2.068050e-15
5.668172e-02 1.542315e-15
5.693172e-02 4.628555e-16
5.718172e-02 -8.844493e-16
5.743171e-02 -2.096016e-15
5.768171e-02 -2.767556e-15
5.793172e-02 -2.624144e-15
5.818172e-02 -1.622856e-15
5.843171e-02 8.115701e-18
5.868171e-02 1.813393e-15
5.893171e-02 3.232250e-15
5.918172e-02 3.767551e-15
5.943172e-02 3.152432e-15
5.968171e-02 1.460839e-15
5.993171e-02 -8.797244e-16
6.018172e-02 -3.187794e-15
6.043172e-02 -4.719813e-15
6.068172e-02 -4.902359e-15
6.093171e-02 -3.534300e-15
6.118171e-02 -8.906562e-16
6.143172e-02 2.315558e-15
6.168172e-02 5.116208e-15
6.193171e-02 6.571978e-15
6.218171e-02 6.076717e-15
6.243172e-02 3.586480e-15
6.268172e-02 -3.080843e-16
6.293172e-02 -4.505515e-15
6.318171e-02 -7.693962e-15
6.343171e-02 -8.749988e-15
6.368172e-02 -7.117841e-15
6.393172e-02 -3.045464e-15
6.418172e-02 2.413094e-15
6.443171e-02 7.653396e-15
6.468171e-02 1.097859e-14
6.493172e-02 1.113330e-14
6.518172e-02 7.749769e-15
6.543171e-02 1.554595e-15
6.568171e-02 -5.754309e-15
6.593172e-02 -1.195399e-14
6.618172e-02 -1.495517e-14
6.643172e-02 -1.348352e-14
6.668171e-02 -7.567563e-15
6.693171e-02 1.342096e-15
6.718172e-02 1.069671e-14
6.743172e-02 1.755616e-14
6.768171e-02 1.948991e-14
6.793171e-02 1.540292e-14
6.818172e-02 6.014751e-15
6.843172e-02 -6.194545e-15
6.868172e-02 -1.760631e-14
6.893171e-02 -2.450862e-14
6.918171e-02 -2.427163e-14
6.943172e-02 -1.628992e-14
6.968172e-02 -2.368324e-15
6.993172e-02 1.362475e-14
7.018171e-02 2.679531e-14
7.043171e-02 3.268695e-14
7.068172e-02 2.874224e-14
7.093172e-02 1.529556e-14
7.118171e-02 -4.263181e-15
7.143171e-02 -2.428362e-14
7.168172e-02 -3.844445e-14
7.193172e-02 -4.170390e-14
7.218172e-02 -3.202283e-14
7.243171e-02 -1.128980e-14
7.268171e-02 1.491975e-14
7.293172e-02 3.878055e-14
7.318172e-02 5.250180e-14
7.343172e-02 5.080831e-14
7.368171e-02 3.284574e-14
7.393171e-02 2.851175e-15
7.418172e-02 -3.073573e-14
7.443172e-02 -5.757838e-14
7.468171e-02 -6.855851e-14
7.493171e-02 -5.878204e-14
7.518172e-02 -2.950923e-14
7.543172e-02 1.170048e-14
7.568172e-02 5.283279e-14
7.593171e-02 8.084101e-14
7.618171e-02 8.569742e-14
7.643172e-02 6.384011e-14
7.668172e-02 1.986734e-14
7.693172e-02 -3.421186e-14
7.718171e-02 -8.214481e-14
7.743172e-02 -1.082233e-13
7.768172e-02 -1.023113e-13
7.793172e-02 -6.353696e-14
7.818171e-02 -1.361331e-15
7.843171e-02 6.653867e-14
7.868172e-02 1.191728e-13
7.893172e-02 1.386062e-13
7.918172e-02 1.158973e-13
7.943171e-02 5.468568e-14
7.968171e-02 -2.890572e-14
7.993172e-02 -1.103313e-13
8.018172e-02 -1.636901e-13
8.043171e-02 -1.698085e-13
8.068171e-02 -1.228625e-13
8.093172e-02 -3.331872e-14
8.118172e-02 7.403883e-14
8.143172e-02 1.667751e-13
8.168171e-02 2.144357e-13
8.193171e-02 1.983345e-13
8.218172e-02 1.184130e-13
8.243172e-02 -5.239529e-15
8.268172e-02 -1.371140e-13
8.293171e-02 -2.362659e-13
8.318172e-02 -2.688161e-13
8.343172e-02 -2.192148e-13
8.368172e-02 -9.660758e-14
8.393171e-02 6.609902e-14
8.418171e-02 2.207541e-13
8.443172e-02 3.179652e-13
8.468172e-02 3.225921e-13
8.493172e-02 2.259519e-13
8.518171e-02 5.061965e-14
8.543171e-02 -1.542658e-13
8.568172e-02 -3.264457e-13
8.593172e-02 -4.091645e-13
8.618172e-02 -3.694890e-13
8.643171e-02 -2.105181e-13
8.668172e-02 2.683965e-14
8.693172e-02 2.738776e-13
8.718172e-02 4.536257e-13
8.743171e-02 5.044700e-13
8.768171e-02 4.007096e-13
8.793172e-02 1.633455e-13
8.818172e-02 -1.430394e-13
8.843172e-02 -4.273562e-13
8.868171e-02 -5.987015e-13
8.893172e-02 -5.949620e-13
8.918172e-02 -4.044659e-13
8.943172e-02 -7.334452e-14
8.968171e-02 3.047535e-13
8.993171e-02 6.146457e-13
9.018172e-02 7.542539e-13
9.043172e-02 6.676211e-13
9.068172e-02 3.657954e-13
9.093171e-02 -7.185793e-14
9.118171e-02 -5.177277e-13
9.143172e-02 -8.326205e-13
9.168172e-02 -9.086572e-13
9.193172e-02 -7.053499e-13
9.218171e-02 -2.670347e-13
9.243172e-02 2.851309e-13
9.268172e-02 7.858669e-13
9.293172e-02 1.074604e-12
9.318171e-02 1.046222e-12
9.343171e-02 6.878684e-13
9.368172e-02 8.934186e-14
9.393172e-02 -5.780621e-13
9.418172e-02 -1.109735e-12
9.443171e-02 -1.329692e-12
9.468171e-02 -1.147733e-12
9.493172e-02 -5.935590e-13
9.518172e-02 1.844331e-13
9.543172e-02 9.576717e-13
9.568171e-02 1.483670e-12
9.593172e-02 1.581077e-12
9.618172e-02 1.190576e-12
9.643172e-02 4.015732e-13
9.668171e-02 -5.659381e-13
9.693171e-02 -1.421612e-12
9.718172e-02 -1.890960e-12
9.743172e-02 -1.802217e-12
9.768172e-02 -1.146701e-12
9.793171e-02 -9.204219e-14
9.818172e-02 1.058879e-12
9.843172e-02 1.953908e-12
9.868172e-02 2.298457e-12
9.893171e-02 1.951084e-12
9.918171e-02 9.772090e-13
9.943172e-02 -3.584774e-13
9.968172e-02 -1.662342e-12
9.993172e-02 -2.526778e-12
1.001817e-01 -2.656600e-12
1.004317e-01 -1.968029e-12
1.006817e-01 -6.276290e-13
1.009317e-01 9.846615e-13
1.011817e-01 2.381432e-12
1.014317e-01 3.113706e-12
1.016817e-01 2.913609e-12
1.019317e-01 1.788969e-12
1.021817e-01 3.736843e-14
1.024317e-01 -1.829585e-12
1.026817e-01 -3.233464e-12
1.029317e-01 -3.705945e-12
1.031817e-01 -3.041878e-12
1.034317e-01 -1.379271e-12
1.036817e-01 8.231938e-13
1.039317e-01 2.910111e-12
1.041817e-01 4.222084e-12
1.044317e-01 4.301106e-12
1.046817e-01 3.045257e-12
1.049317e-01 7.615389e-13
1.051817e-01 -1.905520e-12
1.054317e-01 -4.154371e-12
1.056817e-01 -5.266094e-12
1.059317e-01 -4.831943e-12
1.061817e-01 -2.897330e-12
1.064317e-01 2.715336e-14
1.066817e-01 3.098432e-12
1.069317e-01 5.383917e-12
1.071817e-01 6.145204e-12
1.074317e-01 5.076465e-12
1.076817e-01 2.421066e-12
1.079317e-01 -1.076294e-12
1.081817e-01 -4.375589e-12
1.084317e-01 -6.449746e-12
1.086817e-01 -6.604515e-12
1.089317e-01 -4.710857e-12
1.091817e-01 -1.272963e-12
1.094317e-01 2.697815e-12
1.096817e-01 5.973810e-12
1.099317e-01 7.484446e-12
1.101817e-01 6.659910e-12
1.104317e-01 3.636303e-12
1.106817e-01 -7.490694e-13
1.109317e-01 -5.181838e-12
1.111817e-01 -8.255805e-12
1.114317e-01 -8.907688e-12
1.116817e-01 -6.768642e-12
1.119317e-01 -2.318712e-12
1.121817e-01 3.214098e-12
1.124317e-01 8.192148e-12
1.126817e-01 1.105128e-11
1.129317e-01 1.078648e-11
1.131817e-01 7.290062e-12
1.134317e-01 1.430515e-12
1.136817e-01 -5.164880e-12
1.139317e-01 -1.057076e-11
1.141817e-01 -1.313698e-11
1.144317e-01 -1.200302e-11
1.146817e-01 -7.392086e-12
1.149317e-01 -5.848029e-13
1.151817e-01 6.433394e-12
1.154317e-01 1.155598e-11
1.156817e-01 1.319935e-11
1.159317e-01 1.081021e-11
1.161817e-01 5.073139e-12
1.164317e-01 -2.258581e-12
1.166817e-01 -8.872331e-12
1.169317e-01 -1.260150e-11
1.171817e-01 -1.211536e-11
1.174317e-01 -7.377484e-12
1.176817e-01 2.809169e-13
1.179317e-01 8.513463e-12
1.181817e-01 1.464668e-11
1.184317e-01 1.650514e-11
1.186817e-01 1.312335e-11
1.189317e-01 5.117564e-12
1.191817e-01 -5.414064e-12
1.194317e-01 -1.545458e-11
1.196817e-01 -2.194269e-11
1.199317e-01 -2.270356e-11
1.201817e-01 -1.715260e-11
1.204317e-01 -6.546489e-12
1.206817e-01 6.314506e-12
1.209317e-01 1.786417e-11
1.211817e-01 2.480925e-11
1.214317e-01 2.512204e-11
1.216817e-01 1.868205e-11
1.219317e-01 7.358388e-12
1.221817e-01 -5.510694e-12
1.224317e-01 -1.610126e-11
1.226817e-01 -2.126251e-11
1.229317e-01 -1.949975e-11
1.231817e-01 -1.147219e-11
1.234317e-01 1.638206e-13
1.236817e-01 1.153923e-11
1.239317e-01 1.876183e-11
1.241817e-01 1.915452e-11
1.244317e-01 1.215815e-11
1.246817e-01 -3.948235e-13
1.249317e-01 -1.474613e-11
1.251817e-01 -2.630099e-11
1.254317e-01 -3.102759e-11
1.256817e-01 -2.674574e-11
1.259317e-01 -1.390095e-11
1.261817e-01 4.434791e-12
1.264317e-01 2.336694e-11
1.266817e-01 3.757054e-11
1.269317e-01 4.286660e-11
1.271817e-01 3.750630e-11
1.274317e-01 2.276293e-11
1.276817e-01 2.626472e-12
1.279317e-01 -1.733037e-11
1.281817e-01 -3.159567e-11
1.284317e-01 -3.637947e-11
1.286817e-01 -3.078621e-11
1.289317e-01 -1.712359e-11
1.291817e-01 -2.303579e-13
1.294317e-01 1.399955e-11
1.296817e-01 2.046010e-11
1.299317e-01 1.648473e-11
1.301817e-01 2.788127e-12
1.304317e-01 -1.661903e-11
1.306817e-01 -3.554710e-11
1.309317e-01 -4.747648e-11
1.311817e-01 -4.758160e-11
1.314317e-01 -3.432592e-11
1.316817e-01 -1.011608e-11
1.319317e-01 1.921263e-11
1.321817e-01 4.596716e-11
1.324317e-01 6.277582e-11
1.326817e-01 6.474062e-11
1.329317e-01 5.091174e-11
1.331817e-01 2.462538e-11
1.334317e-01 -7.411368e-12
1.336817e-01 -3.705343e-11
1.339317e-01 -5.707428e-11
1.341817e-01 -6.326647e-11
1.344317e-01 -5.562923e-11
1.346817e-01 -3.827249e-11
1.349317e-01 -1.806973e-11
1.351817e-01 -2.431018e-12
1.354317e-01 3.084138e-12
1.356817e-01 -3.395063e-12
1.359317e-01 -1.936974e-11
1.361817e-01 -3.868166e-11
1.364317e-01 -5.343672e-11
1.366817e-01 -5.655408e-11
1.369317e-01 -4.418171e-11
1.371817e-01 -1.719353e-11
1.374317e-01 1.870263e-11
1.376817e-01 5.437529e-11
1.379317e-01 7.978559e-11
1.381817e-01 8.690303e-11
1.384317e-01 7.216399e-11
1.386817e-01 3.769437e-11
1.389317e-01 -9.102340e-12
1.391817e-01 -5.744574e-11
1.394317e-01 -9.615192e-11
1.396817e-01 -1.166885e-10