-1.388183e-01 0.000000e+00
-1.385683e-01 0.000000e+00
-1.383183e-01 0.000000e+00
-1.380683e-01 0.000000e+00
-1.378183e-01 0.000000e+00
-1.375683e-01 0.000000e+00
-1.373183e-01 0.000000e+00
-1.370683e-01 0.000000e+00
-1.368183e-01 0.000000e+00
-1.365683e-01 0.000000e+00
-1.363183e-01 0.000000e+00
-1.360683e-01 0.000000e+00
-1.358183e-01 0.000000e+00
-1.355683e-01 0.000000e+00
-1.353183e-01 0.000000e+00
-1.350683e-01 0.000000e+00
-1.348183e-01 0.000000e+00
-1.345683e-01 0.000000e+00
-1.343183e-01 0.000000e+00
-1.340683e-01 0.000000e+00
-1.338183e-01 0.000000e+00
-1.335683e-01 0.000000e+00
-1.333183e-01 0.000000e+00
-1.330683e-01 0.000000e+00
-1.328183e-01 0.000000e+00
-1.325683e-01 0.000000e+00
-1.323183e-01 0.000000e+00
-1.320683e-01 0.000000e+00
-1.318183e-01 0.000000e+00
-1.315683e-01 0.000000e+00
-1.313183e-01 0.000000e+00
-1.310683e-01 0.000000e+00
-1.308183e-01 0.000000e+00
-1.305683e-01 0.000000e+00
-1.303183e-01 0.000000e+00
-1.300683e-01 0.000000e+00
-1.298183e-01 0.000000e+00
-1.295683e-01 0.000000e+00
-1.293183e-01 0.000000e+00
-1.290683e-01 0.000000e+00
-1.288183e-01 0.000000e+00
-1.285683e-01 0.000000e+00
-1.283183e-01 0.000000e+00
-1.280683e-01 0.000000e+00
-1.278183e-01 0.000000e+00
-1.275683e-01 0.000000e+00
-1.273183e-01 0.000000e+00
-1.270683e-01 0.000000e+00
-1.268183e-01 0.000000e+00
-1.265683e-01 0.000000e+00
-1.263183e-01 0.000000e+00
-1.260683e-01 0.000000e+00
-1.258183e-01 0.000000e+00
-1.255683e-01 0.000000e+00
-1.253183e-01 0.000000e+00
-1.250683e-01 0.000000e+00
-1.248183e-01 0.000000e+00
-1.245683e-01 0.000000e+00
-1.243183e-01 0.000000e+00
-1.240683e-01 0.000000e+00
-1.238183e-01 0.000000e+00
-1.235683e-01 0.000000e+00
-1.233183e-01 0.000000e+00
-1.230683e-01 0.000000e+00
-1.228183e-01 0.000000e+00
-1.225683e-01 0.000000e+00
-1.223183e-01 0.000000e+00
-1.220683e-01 0.000000e+00
-1.218183e-01 0.000000e+00
-1.215683e-01 0.000000e+00
-1.213183e-01 0.000000e+00
-1.210683e-01 0.000000e+00
-1.208183e-01 0.000000e+00
-1.205683e-01 0.000000e+00
-1.203183e-01 0.000000e+00
-1.200683e-01 0.000000e+00
-1.198183e-01 0.000000e+00
-1.195683e-01 0.000000e+00
-1.193183e-01 0.000000e+00
-1.190683e-01 0.000000e+00
-1.188183e-01 0.000000e+00
-1.185683e-01 0.000000e+00
-1.183183e-01 0.000000e+00
-1.180683e-01 0.000000e+00
-1.178183e-01 0.000000e+00
-1.175683e-01 0.000000e+00
-1.173183e-01 0.000000e+00
-1.170683e-01 0.000000e+00
-1.168183e-01 0.000000e+00
-1.165683e-01 0.000000e+00
-1.163183e-01 0.000000e+00
-1.160683e-01 0.000000e+00
-1.158183e-01 0.000000e+00
-1.155683e-01 0.000000e+00
-1.153183e-01 0.000000e+00
-1.150683e-01 0.000000e+00
-1.148183e-01 0.000000e+00
-1.145683e-01 0.000000e+00
-1.143183e-01 0.000000e+00
-1.140683e-01 0.000000e+00
-1.138183e-01 0.000000e+00
-1.135683e-01 0.000000e+00
-1.133183e-01 0.000000e+00
-1.130683e-01 0.000000e+00
-1.128183e-01 0.000000e+00
-1.125683e-01 0.000000e+00
-1.123183e-01 0.000000e+00
-1.120683e-01 0.000000e+00
-1.118183e-01 0.000000e+00
-1.115683e-01 0.000000e+00
-1.113183e-01 0.000000e+00
-1.110683e-01 0.000000e+00
-1.108183e-01 0.000000e+00
-1.105683e-01 0.000000e+00
-1.103183e-01 0.000000e+00
-1.100683e-01 0.000000e+00
-1.098183e-01 0.000000e+00
-1.095683e-01 0.000000e+00
-1.093183e-01 0.000000e+00
-1.090683e-01 0.000000e+00
-1.088183e-01 0.000000e+00
-1.085683e-01 0.000000e+00
-1.083183e-01 0.000000e+00
-1.080683e-01 0.000000e+00
-1.078183e-01 0.000000e+00
-1.075683e-01 0.000000e+00
-1.073183e-01 0.000000e+00
-1.070683e-01 0.000000e+00
-1.068183e-01 0.000000e+00
-1.065683e-01 0.000000e+00
-1.063183e-01 0.000000e+00
-1.060683e-01 0.000000e+00
-1.058183e-01 0.000000e+00
-1.055683e-01 0.000000e+00
-1.053183e-01 0.000000e+00
-1.050683e-01 0.000000e+00
-1.048183e-01 0.000000e+00
-1.045683e-01 0.000000e+00
-1.043183e-01 0.000000e+00
-1.040683e-01 0.000000e+00
-1.038183e-01 0.000000e+00
-1.035683e-01 0.000000e+00
-1.033183e-01 0.000000e+00
-1.030683e-01 0.000000e+00
-1.028183e-01 0.000000e+00
-1.025683e-01 0.000000e+00
-1.023183e-01 0.000000e+00
-1.020683e-01 0.000000e+00
-1.018183e-01 0.000000e+00
-1.015683e-01 0.000000e+00
-1.013183e-01 0.000000e+00
-1.010683e-01 0.000000e+00
-1.008183e-01 0.000000e+00
-1.005683e-01 0.000000e+00
-1.003183e-01 0.000000e+00
-1.000683e-01 0.000000e+00
-9.981829e-02 0.000000e+00
-9.956829e-02 0.000000e+00
-9.931830e-02 0.000000e+00
-9.906829e-02 0.000000e+00
-9.881829e-02 0.000000e+00
-9.856829e-02 0.000000e+00
-9.831829e-02 0.000000e+00
-9.806830e-02 0.000000e+00
-9.781829e-02 0.000000e+00
-9.756829e-02 0.000000e+00
-9.731829e-02 0.000000e+00
-9.706829e-02 0.000000e+00
-9.681829e-02 0.000000e+00
-9.656829e-02 0.000000e+00
-9.631829e-02 0.000000e+00
-9.606829e-02 0.000000e+00
-9.581830e-02 0.000000e+00
-9.556829e-02 0.000000e+00
-9.531829e-02 0.000000e+00
-9.506829e-02 0.000000e+00
-9.481829e-02 0.000000e+00
-9.456830e-02 0.000000e+00
-9.431829e-02 0.000000e+00
-9.406829e-02 0.000000e+00
-9.381829e-02 0.000000e+00
-9.356830e-02 0.000000e+00
-9.331829e-02 0.000000e+00
-9.306829e-02 0.000000e+00
-9.281829e-02 0.000000e+00
-9.256829e-02 0.000000e+00
-9.231830e-02 0.000000e+00
-9.206829e-02 0.000000e+00
-9.181829e-02 0.000000e+00
-9.156829e-02 0.000000e+00
-9.131829e-02 0.000000e+00
-9.106829e-02 0.000000e+00
-9.081829e-02 0.000000e+00
-9.056829e-02 0.000000e+00
-9.031829e-02 0.000000e+00
-9.006830e-02 0.000000e+00
-8.981829e-02 0.000000e+00
-8.956829e-02 0.000000e+00
-8.931829e-02 0.000000e+00
-8.906829e-02 0.000000e+00
-8.881830e-02 0.000000e+00
-8.856829e-02 0.000000e+00
-8.831829e-02 0.000000e+00
-8.806829e-02 0.000000e+00
-8.781829e-02 0.000000e+00
-8.756829e-02 0.000000e+00
-8.731829e-02 0.000000e+00
-8.706829e-02 0.000000e+00
-8.681829e-02 0.000000e+00
-8.656830e-02 0.000000e+00
-8.631829e-02 0.000000e+00
-8.606829e-02 0.000000e+00
-8.581829e-02 0.000000e+00
-8.556829e-02 0.000000e+00
-8.531829e-02 0.000000e+00
-8.506829e-02 0.000000e+00
-8.481829e-02 0.000000e+00
-8.456829e-02 0.000000e+00
-8.431830e-02 0.000000e+00
-8.406829e-02 0.000000e+00
-8.381829e-02 0.000000e+00
-8.356829e-02 0.000000e+00
-8.331829e-02 0.000000e+00
-8.306830e-02 0.000000e+00
-8.281829e-02 0.000000e+00
-8.256829e-02 0.000000e+00
-8.231829e-02 0.000000e+00
-8.206829e-02 0.000000e+00
-8.181829e-02 0.000000e+00
-8.156829e-02 0.000000e+00
-8.131829e-02 0.000000e+00
-8.106829e-02 0.000000e+00
-8.081830e-02 0.000000e+00
-8.056829e-02 0.000000e+00
-8.031829e-02 0.000000e+00
-8.006829e-02 0.000000e+00
-7.981829e-02 0.000000e+00
-7.956829e-02 0.000000e+00
-7.931829e-02 0.000000e+00
-7.906829e-02 0.000000e+00
-7.881829e-02 0.000000e+00
-7.856829e-02 0.000000e+00
-7.831829e-02 0.000000e+00
-7.806829e-02 0.000000e+00
-7.781829e-02 0.000000e+00
-7.756829e-02 0.000000e+00
-7.731830e-02 0.000000e+00
-7.706829e-02 0.000000e+00
-7.681829e-02 0.000000e+00
-7.656829e-02 0.000000e+00
-7.631829e-02 0.000000e+00
-7.606829e-02 0.000000e+00
-7.581829e-02 1.401298e-45
-7.556829e-02 4.203895e-45
-7.531829e-02 2.802597e-45
-7.506829e-02 2.802597e-45
-7.481829e-02 1.401298e-45
-7.456829e-02 -4.203895e-45
-7.431829e-02 -1.121039e-44
-7.406829e-02 -1.681558e-44
-7.381829e-02 -2.382207e-44
-7.356829e-02 -1.821688e-44
-7.331829e-02 -5.605194e-45
-7.306829e-02 2.662467e-44
-7.281829e-02 7.006492e-44
-7.256829e-02 1.079000e-43
-7.231829e-02 1.191104e-43
-7.206829e-02 7.987401e-44
-7.181829e-02 -3.222986e-44
-7.156829e-02 -2.101948e-43
-7.131829e-02 -4.231921e-43
-7.106829e-02 -5.801376e-43
-7.081829e-02 -5.689272e-43
-7.056829e-02 -2.634441e-43
-7.031829e-02 4.007714e-43
-7.006829e-02 1.362062e-42
-6.981829e-02 2.365392e-42
-6.956829e-02 2.942727e-42
-6.931829e-02 2.499916e-42
-6.906829e-02 5.170791e-43
-6.881829e-02 -3.151520e-42
-6.856829e-02 -7.925744e-42
-6.831829e-02 -1.229219e-41
-6.806829e-02 -1.383362e-41
-6.781829e-02 -9.821701e-42
-6.756829e-02 1.706782e-42
-6.731829e-02 2.047017e-41
-6.706829e-02 4.253922e-41
-6.681829e-02 5.969111e-41
-6.656829e-02 6.043520e-41
-6.631829e-02 3.324721e-41
-6.606829e-02 -2.797833e-41
-6.581829e-02 -1.174092e-40
-6.556829e-02 -2.120739e-40
-6.531829e-02 -2.712956e-40
-6.506829e-02 -2.441062e-40
-6.481829e-02 -8.628355e-41
-6.456829e-02 2.146243e-40
-6.431829e-02 6.129952e-40
-6.406829e-02 9.888319e-40
-6.381829e-02 1.155537e-39
-6.356829e-02 9.033807e-40
-6.331829e-02 8.108473e-41
-6.306829e-02 -1.298202e-39
-6.281829e-02 -2.960005e-39
-6.256829e-02 -4.330723e-39
-6.231829e-02 -4.612712e-39
-6.206829e-02 -3.007172e-39
-6.181829e-02 9.262877e-40
-6.156829e-02 6.853438e-39
-6.131829e-02 1.334666e-38
-6.106829e-02 1.786559e-38
-6.081829e-02 1.722459e-38
-6.056829e-02 8.626266e-39
-6.031829e-02 -8.867298e-39
-6.006829e-02 -3.282494e-38
-5.981829e-02 -5.654765e-38
-5.956829e-02 -6.953401e-38
-5.931829e-02 -5.989147e-38
-5.906829e-02 -1.874564e-38
-5.881829e-02 5.415288e-38
-5.856829e-02 1.454077e-37
-5.831829e-02 2.260729e-37
-5.806829e-02 2.554507e-37
-5.781829e-02 1.921198e-37
-5.756829e-02 1.141482e-38
-5.731829e-02 -2.746621e-37
-5.706829e-02 -6.023848e-37
-5.681829e-02 -8.552626e-37
-5.656829e-02 -8.850884e-37
-5.631829e-02 -5.579802e-37
-5.606829e-02 1.808860e-37
-5.581829e-02 1.241559e-36
-5.556829e-02 2.350159e-36
-5.531829e-02 3.067051e-36
-5.506829e-02 2.884842e-36
-5.481829e-02 1.406455e-36
-5.456829e-02 -1.430381e-36
-5.431829e-02 -5.152970e-36
-5.406829e-02 -8.674842e-36
-5.381829e-02 -1.043372e-35
-5.356829e-02 -8.799112e-36
-5.331829e-02 -2.715635e-36
-5.306829e-02 7.567800e-36
-5.281829e-02 1.994414e-35
-5.256829e-02 3.038821e-35
-5.231829e-02 3.366130e-35
-5.206829e-02 2.486647e-35
-5.181829e-02 1.629700e-36
-5.156829e-02 -3.368824e-35
-5.131829e-02 -7.264685e-35
-5.106829e-02 -1.012222e-34
-5.081829e-02 -1.028295e-34
-5.056829e-02 -6.384437e-35
-5.031829e-02 1.944357e-35
-5.006829e-02 1.346089e-34
-4.981829e-02 2.504832e-34
-4.956829e-02 3.209276e-34
-4.931829e-02 2.964376e-34
-4.906829e-02 1.425171e-34
-4.881829e-02 -1.394847e-34
-4.856829e-02 -4.963724e-34
-4.831829e-02 -8.206165e-34
-4.806829e-02 -9.685599e-34
-4.781829e-02 -8.013856e-34
-4.756829e-02 -2.426798e-34
-4.731829e-02 6.630491e-34
-4.706829e-02 1.713911e-33
-4.681829e-02 2.560638e-33
-4.656829e-02 2.779688e-33
-4.631829e-02 2.008078e-33
-4.606829e-02 1.134343e-34
-4.581829e-02 -2.653020e-33
-4.556829e-02 -5.588658e-33
-4.531829e-02 -7.620561e-33
-4.506829e-02 -7.567601e-33
-4.481829e-02 -4.557392e-33
-4.456829e-02 1.500288e-33
-4.431829e-02 9.546319e-33
-4.406829e-02 1.730061e-32
-4.381829e-02 2.163845e-32
-4.356829e-02 1.945458e-32
-4.331829e-02 8.879363e-33
-4.306829e-02 -9.482903e-33
-4.281829e-02 -3.176850e-32
-4.256829e-02 -5.101417e-32
-4.231829e-02 -5.858614e-32
-4.206829e-02 -4.683850e-32
-4.181829e-02 -1.246427e-32
-4.156829e-02 4.048242e-32
-4.131829e-02 9.919753e-32
-4.106829e-02 1.435617e-31
-4.081829e-02 1.509643e-31
-4.056829e-02 1.039950e-31
-4.031829e-02 -8.386616e-34
-4.006829e-02 -1.463253e-31
-3.981829e-02 -2.930613e-31
-3.956829e-02 -3.858908e-31
-3.931829e-02 -3.688630e-31
-3.906829e-02 -2.062467e-31
-3.881829e-02 9.613246e-32
-3.856829e-02 4.772788e-31
-3.831829e-02 8.232726e-31
-3.806829e-02 9.905134e-31
-3.781829e-02 8.489894e-31
-3.756829e-02 3.365808e-31
-3.731829e-02 -4.921665e-31
-3.706829e-02 -1.443396e-30
-3.681829e-02 -2.205688e-30
-3.656829e-02 -2.424281e-30
-3.631829e-02 -1.818832e-30
-3.606829e-02 -3.160093e-31
-3.581829e-02 1.847883e-30
-3.556829e-02 4.103881e-30
-3.531829e-02 5.644258e-30
-3.506829e-02 5.639847e-30
-3.481829e-02 3.542895e-30
-3.456829e-02 -6.081872e-31
-3.431829e-02 -5.996169e-30
-3.406829e-02 -1.105630e-29
-3.381829e-02 -1.379836e-29
-3.356829e-02 -1.240020e-29
-3.331829e-02 -5.944674e-30
-3.306829e-02 4.926298e-30
-3.281829e-02 1.771376e-29
-3.256829e-02 2.835359e-29
-3.231829e-02 3.219055e-29
-3.206829e-02 2.550373e-29
-3.181829e-02 7.201169e-30
-3.156829e-02 -1.989007e-29
-3.131829e-02 -4.875464e-29
-3.106829e-02 -6.938217e-29
-3.081829e-02 -7.146725e-29
-3.056829e-02 -4.811404e-29
-3.031829e-02 4.963782e-31
-3.006829e-02 6.484726e-29
-2.981829e-02 1.265344e-28
-2.956829e-02 1.621388e-28
-2.931829e-02 1.502065e-28
-2.906829e-02 7.976169e-29
-2.881829e-02 -4.229200e-29
-2.856829e-02 -1.879721e-28
-2.831829e-02 -3.117403e-28
-2.806829e-02 -3.615933e-28
-2.781828e-02 -2.960414e-28
-2.756829e-02 -1.025937e-28
-2.731829e-02 1.885704e-28
-2.706829e-02 5.022684e-28
-2.681829e-02 7.317189e-28
-2.656829e-02 7.676630e-28
-2.631829e-02 5.373990e-28
-2.606829e-02 4.250542e-29
-2.581829e-02 -6.189556e-28
-2.556829e-02 -1.258618e-27
-2.531829e-02 -1.638769e-27
-2.506829e-02 -1.543702e-27
-2.481829e-02 -8.646069e-28
-2.456829e-02 3.288312e-28
-2.431829e-02 1.760233e-27
-2.406829e-02 2.984941e-27
-2.381829e-02 3.500915e-27
-2.356829e-02 2.913299e-27
-2.331829e-02 1.108706e-27
-2.306829e-02 -1.621166e-27
-2.281829e-02 -4.566314e-27
-2.256829e-02 -6.732625e-27
-2.231829e-02 -7.117751e-27
-2.206829e-02 -5.069823e-27
-2.181829e-02 -6.230943e-28
-2.156829e-02 5.317492e-27
-2.131829e-02 1.105281e-26
-2.106829e-02 1.447403e-26
-2.081829e-02 1.370375e-26
-2.056829e-02 7.835316e-27
-2.031828e-02 -2.468671e-27
-2.006829e-02 -1.477377e-26
-1.981829e-02 -2.525085e-26
-1.956829e-02 -2.965917e-26
-1.931829e-02 -2.474989e-26
-1.906829e-02 -9.702271e-27
-1.881829e-02 1.291469e-26
-1.856828e-02 3.713058e-26
-1.831829e-02 5.477624e-26
-1.806829e-02 5.780087e-26
-1.781829e-02 4.117564e-26
-1.756829e-02 5.502945e-27
-1.731829e-02 -4.168262e-26
-1.706829e-02 -8.673836e-26
-1.681828e-02 -1.131370e-25
-1.656829e-02 -1.065781e-25
-1.631829e-02 -6.066273e-26
-1.606829e-02 1.874482e-26
-1.581829e-02 1.123711e-25
-1.556829e-02 1.908572e-25
-1.531829e-02 2.225394e-25
-1.506829e-02 1.840765e-25
-1.481829e-02 7.088103e-26
-1.456829e-02 -9.640602e-26
-1.431829e-02 -2.727260e-25
-1.406829e-02 -3.982797e-25
-1.381829e-02 -4.159086e-25
-1.356828e-02 -2.919748e-25
-1.331829e-02 -3.421727e-26
-1.306829e-02 3.005126e-25
-1.281829e-02 6.139390e-25
-1.256830e-02 7.906293e-25
-1.231828e-02 7.344093e-25
-1.206829e-02 4.070615e-25
-1.181829e-02 -1.438047e-25
-1.156829e-02 -7.802665e-25
-1.131828e-02 -1.300349e-24
-1.106828e-02 -1.493329e-24
-1.081829e-02 -1.211692e-24
-1.056829e-02 -4.384059e-25
-1.031829e-02 6.753442e-25
-1.006828e-02 1.822468e-24
-9.818286e-03 2.610093e-24
-9.568289e-03 2.676729e-24
-9.318292e-03 1.826571e-24
-9.068280e-03 1.377234e-25
-8.818284e-03 -1.999908e-24
-8.568287e-03 -3.947132e-24
-8.318290e-03 -4.980250e-24
-8.068293e-03 -4.524309e-24
-7.818282e-03 -2.389132e-24
-7.568285e-03 1.074126e-24
-7.318288e-03 4.969388e-24
-7.068291e-03 8.041909e-24
-6.818295e-03 9.033215e-24
-6.568283e-03 7.119376e-24
-6.318286e-03 2.298378e-24
-6.068289e-03 -4.420671e-24
-5.818292e-03 -1.113817e-23
-5.568281e-03 -1.552293e-23
-5.318284e-03 -1.552594e-23
-5.068287e-03 -1.015737e-23
-4.818290e-03 -6.973609e-26
-4.568294e-03 1.230008e-23
-4.318282e-03 2.317841e-23
-4.068285e-03 2.846778e-23
-3.818288e-03 2.509808e-23
-3.568292e-03 1.232021e-23
-3.318280e-03 -7.521259e-24
-3.068283e-03 -2.912043e-23
-2.818286e-03 -4.540028e-23
-2.568290e-03 -4.957851e-23
-2.318293e-03 -3.758176e-23
-2.068281e-03 -1.004487e-23
-1.818284e-03 2.688975e-23
-1.568288e-03 6.250973e-23
-1.318291e-03 8.425583e-23
-1.068294e-03 8.166931e-23
-8.182824e-04 5.045606e-23
-5.682856e-04 -4.717582e-24
-3.182888e-04 -6.993507e-23
-6.829202e-05 -1.248788e-22
1.817197e-04 -1.484932e-22
4.317164e-04 -1.260943e-22
6.817132e-04 -5.576788e-23
9.317100e-04 4.830555e-23
1.181707e-03 1.573903e-22
1.431718e-03 2.350766e-22
1.681715e-03 2.482337e-22
1.931712e-03 1.790892e-22
2.181709e-03 3.449825e-23
2.431706e-03 -1.513764e-22
2.681717e-03 -3.232415e-22
2.931714e-03 -4.193851e-22
3.181711e-03 -3.915795e-22
3.431708e-03 -2.243703e-22
3.681719e-03 5.302070e-23
3.931716e-03 3.677621e-22
4.181713e-03 6.196802e-22
4.431710e-03 7.101686e-22
4.681706e-03 5.763072e-22
4.931718e-03 2.194955e-22
5.181715e-03 -2.823300e-22
5.431712e-03 -7.863296e-22
5.681708e-03 -1.120939e-21
5.931720e-03 -1.138971e-21
6.181717e-03 -7.727314e-22
6.431714e-03 -7.260628e-23
6.681710e-03 7.872984e-22
6.931707e-03 1.544792e-21
7.181719e-03 1.922238e-21
7.431716e-03 1.718420e-21
7.681713e-03 8.918615e-22
7.931709e-03 -3.945892e-22
8.181706e-03 -1.790514e-21
8.431718e-03 -2.841948e-21
8.681715e-03 -3.126633e-21
8.931711e-03 -2.403931e-21
9.181708e-03 -7.308718e-22
9.431720e-03 1.501630e-21
9.681717e-03 3.639682e-21
9.931713e-03 4.940181e-21
1.018171e-02 4.807198e-21
1.043171e-02 3.021871e-21
1.068172e-02 -1.137774e-22
1.093172e-02 -3.783993e-21
1.118171e-02 -6.842640e-21
1.143171e-02 -8.142423e-21
1.168172e-02 -6.924374e-21
1.193172e-02 -3.145915e-21
1.218171e-02 2.375377e-21
1.243171e-02 8.084395e-21
1.268171e-02 1.208379e-20
1.293172e-02 1.271619e-20
1.318172e-02 9.168938e-21
1.343171e-02 1.899624e-21
1.368171e-02 -7.293907e-21
1.393171e-02 -1.564581e-20
1.418172e-02 -2.018839e-20
1.443172e-02 -1.872134e-20
1.468171e-02 -1.069057e-20
1.493171e-02 2.337152e-21
1.518172e-02 1.683532e-20
1.543172e-02 2.817034e-20
1.568171e-02 3.197648e-20
1.593171e-02 2.567720e-20
1.618171e-02 9.662882e-21
1.643172e-02 -1.233313e-20
1.668172e-02 -3.392431e-20
1.693171e-02 -4.777506e-20
1.718171e-02 -4.791504e-20
1.743171e-02 -3.198386e-20
1.768172e-02 -2.635683e-21
1.793171e-02 3.251273e-20
1.818171e-02 6.261781e-20
1.843171e-02 7.672355e-20
1.868172e-02 6.743340e-20
1.893172e-02 3.399201e-20
1.918171e-02 -1.636143e-20
1.943171e-02 -6.951048e-20
1.968171e-02 -1.080799e-19
1.993172e-02 -1.167457e-19
2.018172e-02 -8.772375e-20
2.043171e-02 -2.461560e-20
2.068171e-02 5.695178e-20
2.093172e-02 1.326287e-19
2.118172e-02 1.761130e-19
2.143171e-02 1.676690e-19
2.168171e-02 1.018068e-19
2.193171e-02 -8.594706e-21
2.218172e-02 -1.336783e-19
2.243172e-02 -2.339238e-19
2.268171e-02 -2.718701e-19
2.293171e-02 -2.249993e-19
2.318171e-02 -9.564160e-20
2.343172e-02 8.590088e-20
2.368172e-02 2.671232e-19
2.393171e-02 3.874351e-19
2.418171e-02 3.971891e-19
2.443172e-02 2.760008e-19
2.468172e-02 4.410085e-20
2.493171e-02 -2.381664e-19
2.518171e-02 -4.843543e-19
2.543171e-02 -6.068193e-19
2.568172e-02 -5.458398e-19
2.593172e-02 -2.938360e-19
2.618171e-02 9.416966e-20
2.643171e-02 5.094450e-19
2.668172e-02 8.177460e-19
2.693172e-02 9.003002e-19
2.718171e-02 6.957791e-19
2.743171e-02 2.293728e-19
2.768171e-02 -3.826961e-19
2.793172e-02 -9.583877e-19
2.818172e-02 -1.300788e-18
2.843171e-02 -1.261559e-18
2.868171e-02 -7.975609e-19
2.893171e-02 -7.007084e-22
2.918172e-02 9.128766e-19
2.943172e-02 1.656617e-18
2.968171e-02 1.958719e-18
2.993171e-02 1.654777e-18
3.018172e-02 7.580727e-19
3.043172e-02 -5.191633e-19
3.068171e-02 -1.807693e-18
3.093171e-02 -2.681535e-18
3.118171e-02 -2.791499e-18
3.143172e-02 -1.992256e-18
3.168172e-02 -4.196757e-19
3.193171e-02 1.514398e-18
3.218171e-02 3.219910e-18
3.243172e-02 4.099451e-18
3.268172e-02 3.745614e-18
3.293172e-02 2.102940e-18
3.318171e-02 -4.644379e-19
3.343171e-02 -3.235109e-18
3.368172e-02 -5.320047e-18
3.393172e-02 -5.934305e-18
3.418171e-02 -4.671718e-18
3.443171e-02 -1.691827e-18
3.468171e-02 2.255247e-18
3.493172e-02 5.996476e-18
3.518172e-02 8.266831e-18
3.543171e-02 8.115856e-18
3.568171e-02 5.265215e-18
3.593172e-02 2.919324e-19
3.618172e-02 -5.447098e-18
3.643171e-02 -1.015925e-17
3.668171e-02 -1.215090e-17
3.693171e-02 -1.040105e-17
3.718172e-02 -4.988919e-18
3.743172e-02 2.785802e-18
3.768171e-02 1.067071e-17
3.793171e-02 1.607924e-17
3.818171e-02 1.690150e-17
3.843172e-02 1.226424e-17
3.868172e-02 2.981660e-18
3.893171e-02 -8.492801e-18
3.918171e-02 -1.866289e-17
3.943172e-02 -2.400836e-17
3.968172e-02 -2.214397e-17
3.993171e-02 -1.275358e-17
4.018171e-02 2.038709e-18
4.043171e-02 1.805564e-17
4.068172e-02 3.018146e-17
4.093172e-02 3.392913e-17
4.118171e-02 2.700003e-17
4.143171e-02 1.031994e-17
4.168172e-02 -1.185751e-17
4.193172e-02 -3.293198e-17
4.218172e-02 -4.583551e-17
4.243171e-02 -4.530189e-17
4.268171e-02 -2.982707e-17
4.293172e-02 -2.634218e-18
4.318172e-02 2.879842e-17
4.343171e-02 5.467058e-17
4.368171e-02 6.579786e-17
4.393171e-02 5.670949e-17
4.418172e-02 2.790590e-17
4.443172e-02 -1.357297e-17
4.468171e-02 -5.566196e-17
4.493171e-02 -8.462413e-17
4.518172e-02 -8.936302e-17
4.543172e-02 -6.539061e-17
4.568172e-02 -1.710181e-17
4.593171e-02 4.259700e-17
4.618171e-02 9.550318e-17
4.643172e-02 1.234609e-16
4.668172e-02 1.143286e-16
4.693171e-02 6.668315e-17
4.718171e-02 -8.437723e-18
4.743172e-02 -8.967889e-17
4.768172e-02 -1.511547e-16
4.793172e-02 -1.704082e-16
4.818171e-02 -1.361793e-16
4.843171e-02 -5.341338e-17
4.868172e-02 5.646549e-17
4.893172e-02 1.606560e-16
4.918171e-02 2.244081e-16
4.943171e-02 2.221868e-16
4.968171e-02 1.471057e-16
4.993172e-02 1.533375e-17
5.018172e-02 -1.365491e-16
5.043171e-02 -2.611914e-16
5.068171e-02 -3.147445e-16
5.093172e-02 -2.716187e-16
5.118172e-02 -1.349370e-16
5.143172e-02 6.123124e-17
5.168171e-02 2.595196e-16
5.193171e-02 3.954069e-16
5.218172e-02 4.175211e-16
5.243172e-02 3.059156e-16
5.268171e-02 8.210713e-17
5.293171e-02 -1.933366e-16
5.318171e-02 -4.362565e-16
5.343172e-02 -5.637953e-16
5.368172e-02 -5.216210e-16
5.393171e-02 -3.048266e-16
5.418171e-02 3.503359e-17
5.443172e-02 4.005945e-16
5.468172e-02 6.754736e-16
5.493172e-02 7.602031e-16
5.518171e-02 6.065476e-16
5.543171e-02 2.388049e-16
5.568172e-02 -2.462837e-16
5.593172e-02 -7.032951e-16
5.618171e-02 -9.803434e-16
5.643171e-02 -9.679450e-16
5.668172e-02 -6.392667e-16
5.693172e-02 -6.769070e-17
5.718172e-02 5.864583e-16
5.743171e-02 1.118972e-15
5.768171e-02 1.343691e-15
5.793172e-02 1.155091e-15
5.818172e-02 5.711606e-16
5.843171e-02 -2.595091e-16
5.868171e-02 -1.092470e-15
5.893171e-02 -1.657050e-15
5.918172e-02 -1.741783e-15
5.943172e-02 -1.269417e-15
5.968171e-02 -3.359545e-16
5.993171e-02 8.027242e-16
6.018172e-02 1.797692e-15
6.043172e-02 2.310977e-15
6.068172e-02 2.126643e-15
6.093171e-02 1.233481e-15
6.118171e-02 -1.505231e-16
6.143172e-02 -1.625833e-15
6.168172e-02 -2.722897e-15
6.193171e-02 -3.047719e-15
6.218171e-02 -2.417490e-15
6.243172e-02 -9.411323e-16
6.268172e-02 9.869732e-16
6.293172e-02 2.786686e-15
6.318171e-02 3.862084e-15
6.343171e-02 3.793428e-15
6.368172e-02 2.490741e-15
6.393172e-02 2.554060e-16
6.418172e-02 -2.279413e-15
6.443171e-02 -4.321936e-15
6.468171e-02 -5.163335e-15
6.493172e-02 -4.415818e-15
6.518172e-02 -2.169415e-15
6.543171e-02 9.912525e-16
6.568171e-02 4.129334e-15
6.593172e-02 6.226176e-15
6.618172e-02 6.504231e-15
6.643172e-02 4.702470e-15
6.668171e-02 1.210186e-15
6.693171e-02 -2.997825e-15
6.718172e-02 -6.622576e-15
6.743172e-02 -8.432420e-15
6.768171e-02 -7.669796e-15
6.793171e-02 -4.342362e-15
6.818172e-02 7.071425e-16
6.843172e-02 5.996075e-15
6.868172e-02 9.823704e-15
6.893171e-02 1.080401e-14
6.918171e-02 8.346651e-15
6.943172e-02 2.924927e-15
6.968172e-02 -3.976733e-15
6.993172e-02 -1.024888e-14
7.018171e-02 -1.378308e-14
7.043171e-02 -1.315737e-14
7.068172e-02 -8.164215e-15
7.093172e-02 4.877401e-18
7.118171e-02 9.010535e-15
7.143171e-02 1.601211e-14
7.168172e-02 1.853773e-14
7.193172e-02 1.531784e-14
7.218172e-02 6.809668e-15
7.243171e-02 -4.784660e-15
7.268171e-02 -1.605927e-14
7.293172e-02 -2.338168e-14
7.318172e-02 -2.403219e-14
7.343172e-02 -1.715463e-14
7.368171e-02 -4.197759e-15
7.393171e-02 1.133861e-14
7.418172e-02 2.483146e-14
7.443172e-02 3.189776e-14
7.468171e-02 2.979520e-14
7.493171e-02 1.841737e-14
7.518172e-02 5.344874e-16
7.543172e-02 -1.885666e-14
7.568172e-02 -3.393502e-14
7.593171e-02 -3.982036e-14
7.618171e-02 -3.416567e-14
7.643172e-02 -1.805640e-14
7.668172e-02 4.120024e-15
7.693172e-02 2.586389e-14
7.718171e-02 4.050184e-14
7.743172e-02 4.330036e-14
7.768172e-02 3.308099e-14
7.793172e-02 1.277854e-14
7.818171e-02 -1.131096e-14
7.843171e-02 -3.143476e-14
7.868172e-02 -4.088968e-14
7.893172e-02 -3.633837e-14
7.918172e-02 -1.914552e-14
7.943171e-02 4.793772e-15
7.968171e-02 2.679817e-14
7.993172e-02 3.825921e-14
8.018172e-02 3.373808e-14
8.043171e-02 1.326008e-14
8.068171e-02 -1.706472e-14
8.093172e-02 -4.649076e-14
8.118172e-02 -6.289304e-14
8.143172e-02 -5.693087e-14
8.168171e-02 -2.581230e-14
8.193171e-02 2.466521e-14
8.218172e-02 8.070516e-14
8.243172e-02 1.238811e-13
8.268172e-02 1.365396e-13
8.293171e-02 1.077415e-13
8.318172e-02 3.789640e-14
8.343172e-02 -5.955451e-14
8.368172e-02 -1.603120e-13
8.393171e-02 -2.350422e-13
8.418171e-02 -2.574921e-13
8.443172e-02 -2.126886e-13
8.468172e-02 -1.027626e-13
8.493172e-02 5.158474e-14
8.518171e-02 2.148318e-13
8.543171e-02 3.449905e-13
8.568172e-02 4.045400e-13
8.593172e-02 3.710125e-13
8.618172e-02 2.442008e-13
8.643171e-02 4.774320e-14
8.668172e-02 -1.756658e-13
8.693172e-02 -3.744007e-13
8.718172e-02 -5.007662e-13
8.743171e-02 -5.231341e-13
8.768171e-02 -4.340194e-13
8.793172e-02 -2.518652e-13
8.818172e-02 -1.608833e-14
8.843172e-02 2.231373e-13
8.868171e-02 4.173860e-13
8.893172e-02 5.312148e-13
8.918172e-02 5.490669e-13
8.943172e-02 4.762308e-13
8.968171e-02 3.341572e-13
8.993171e-02 1.522180e-13
9.018172e-02 -4.098421e-14
9.043172e-02 -2.237039e-13
9.068172e-02 -3.826523e-13
9.093171e-02 -5.100793e-13
9.118171e-02 -5.982221e-13
9.143172e-02 -6.342474e-13
9.168172e-02 -5.988724e-13
9.193172e-02 -4.705900e-13
9.218171e-02 -2.351830e-13
9.243172e-02 1.022636e-13
9.268172e-02 5.074580e-13
9.293172e-02 9.140646e-13
9.318171e-02 1.231422e-12
9.343171e-02 1.363259e-12
9.368172e-02 1.234002e-12
9.393172e-02 8.158917e-13
9.418172e-02 1.483810e-13
9.443171e-02 -6.579146e-13
9.468171e-02 -1.437013e-12
9.493172e-02 -2.002034e-12
9.518172e-02 -2.191381e-12
9.543172e-02 -1.915104e-12
9.568171e-02 -1.188150e-12
9.593172e-02 -1.392990e-13
9.618172e-02 1.009783e-12
9.643172e-02 1.992969e-12
9.668171e-02 2.565006e-12
9.693171e-02 2.567292e-12
9.718172e-02 1.975889e-12
9.743172e-02 9.169356e-13
9.768172e-02 -3.574033e-13
9.793171e-02 -1.528787e-12
9.818172e-02 -2.294317e-12
9.843172e-02 -2.448779e-12
9.868172e-02 -1.944831e-12
9.893171e-02 -9.131239e-13
9.918171e-02 3.653983e-13
9.943172e-02 1.529999e-12
9.968172e-02 2.236132e-12
9.993172e-02 2.251712e-12
1.001817e-01 1.527246e-12
1.004317e-01 2.194383e-13
1.006817e-01 -1.340092e-12
1.009317e-01 -2.724694e-12
1.011817e-01 -3.521483e-12
1.014317e-01 -3.441056e-12
1.016817e-01 -2.399384e-12
1.019317e-01 -5.499826e-13
1.021817e-01 1.742528e-12
1.024317e-01 3.981292e-12
1.026817e-01 5.648873e-12
1.029317e-01 6.324253e-12
1.031817e-01 5.777257e-12
1.034317e-01 4.019336e-12
1.036817e-01 1.301519e-12
1.039317e-01 -1.936422e-12
1.041817e-01 -5.150595e-12
1.044317e-01 -7.790644e-12
1.046817e-01 -9.390023e-12
1.049317e-01 -9.634169e-12
1.051817e-01 -8.399909e-12
1.054317e-01 -5.767200e-12
1.056817e-01 -2.008885e-12
1.059317e-01 2.435363e-12
1.061817e-01 6.997792e-12
1.064317e-01 1.103478e-11
1.066817e-01 1.389571e-11
1.069317e-01 1.500971e-11
1.071817e-01 1.398540e-11
1.074317e-01 1.070942e-11
1.076817e-01 5.420854e-12
1.079317e-01 -1.264784e-12
1.081817e-01 -8.404076e-12
1.084317e-01 -1.485503e-11
1.086817e-01 -1.947456e-11
1.089317e-01 -2.134946e-11
1.091817e-01 -2.000857e-11
1.094317e-01 -1.555964e-11
1.096817e-01 -8.704992e-12
1.099317e-01 -6.170394e-13
1.101817e-01 7.308643e-12
1.104317e-01 1.376849e-11
1.106817e-01 1.785415e-11
1.109317e-01 1.925865e-11
1.111817e-01 1.831960e-11
1.114317e-01 1.587562e-11
1.116817e-01 1.296584e-11
1.119317e-01 1.045368e-11
1.121817e-01 8.688570e-12
1.124317e-01 7.321137e-12
1.126817e-01 5.353711e-12
1.129317e-01 1.445026e-12
1.131817e-01 -5.589410e-12
1.134317e-01 -1.620996e-11
1.136817e-01 -2.968870e-11
1.139317e-01 -4.391530e-11
1.141817e-01 -5.558767e-11
1.144317e-01 -6.080875e-11
1.146817e-01 -5.599965e-11
1.149317e-01 -3.893741e-11
1.151817e-01 -9.662686e-12
1.154317e-01 2.899972e-11
1.156817e-01 7.150035e-11
1.159317e-01 1.102770e-10
1.161817e-01 1.370406e-10
1.164317e-01 1.444104e-10
1.166817e-01 1.275712e-10
1.169317e-01 8.559195e-11
1.171817e-01 2.209217e-11
1.174317e-01 -5.493260e-11
1.176817e-01 -1.341471e-10
1.179317e-01 -2.026141e-10
1.181817e-01 -2.479248e-10
1.184317e-01 -2.603313e-10
1.186817e-01 -2.344865e-10
1.189317e-01 -1.704813e-10
1.191817e-01 -7.400605e-11
1.194317e-01 4.436253e-11
1.196817e-01 1.705933e-10
1.199317e-01 2.890762e-10
1.201817e-01 3.846134e-10
1.204317e-01 4.442176e-10
1.206817e-01 4.584797e-10
1.209317e-01 4.223775e-10
1.211817e-01 3.355199e-10
1.214317e-01 2.019138e-10
1.216817e-01 2.941293e-11
1.219317e-01 -1.709768e-10
1.221817e-01 -3.857797e-10
1.224317e-01 -5.996201e-10
1.226817e-01 -7.956527e-10
1.229317e-01 -9.559051e-10
1.231817e-01 -1.061646e-09
1.234317e-01 -1.093943e-09
1.236817e-01 -1.034575e-09
1.239317e-01 -8.674425e-10
1.241817e-01 -5.805261e-10
1.244317e-01 -1.683512e-10
1.246817e-01 3.652506e-10
1.249317e-01 1.004433e-09
1.251817e-01 1.719153e-09
1.254317e-01 2.464056e-09
1.256817e-01 3.178932e-09
1.259317e-01 3.791093e-09
1.261817e-01 4.219770e-09
1.264317e-01 4.382272e-09
1.266817e-01 4.201290e-09
1.269317e-01 3.612411e-09
1.271817e-01 2.570746e-09
1.274317e-01 1.055551e-09
1.276817e-01 -9.279899e-10
1.279317e-01 -3.350250e-09
1.281817e-01 -6.161786e-09
1.284317e-01 -9.300364e-09
1.286817e-01 -1.269924e-08
1.289317e-01 -1.629528e-08
1.291817e-01 -2.003548e-08
1.294317e-01 -2.388100e-08
1.296817e-01 -2.780814e-08
1.299317e-01 -3.180645e-08
1.301817e-01 -3.587495e-08
1.304317e-01 -4.001741e-08
1.306817e-01 -4.423832e-08
1.309317e-01 -4.854031e-08
1.311817e-01 -5.292387e-08
1.314317e-01 -5.738915e-08
1.316817e-01 -6.193911e-08
1.319317e-01 -6.658312e-08
1.321817e-01 -7.133927e-08
1.324317e-01 -7.623517e-08
1.326817e-01 -8.130565e-08
1.329317e-01 -8.658870e-08
1.331817e-01 -9.211967e-08
1.334317e-01 -9.792556e-08
1.336817e-01 -1.040207e-07
1.339317e-01 -1.104049e-07
1.341817e-01 -1.170656e-07
1.344317e-01 -1.239820e-07
1.346817e-01 -1.311327e-07
1.349317e-01 -1.385031e-07
1.351817e-01 -1.460925e-07
1.354317e-01 -1.539175e-07
1.356817e-01 -1.620128e-07
1.359317e-01 -1.704274e-07
1.361817e-01 -1.792177e-07
1.364317e-01 -1.884392e-07
1.366817e-01 -1.981373e-07
1.369317e-01 -2.083419e-07
1.371817e-01 -2.190633e-07
1.374317e-01 -2.302939e-07
1.376817e-01 -2.420133e-07
1.379317e-01 -2.541961e-07
1.381817e-01 -2.668213e-07
1.384317e-01 -2.798810e-07
1.386817e-01 -2.933868e-07
1.389317e-01 -3.073722e-07
1.391817e-01 -3.218911e-07
1.394317e-01 -3.370125e-07
1.396817e-01 -3.528122e-07