-1.388183e-01 0.000000e+00
-1.385683e-01 0.000000e+00
-1.383183e-01 0.000000e+00
-1.380683e-01 0.000000e+00
-1.378183e-01 0.000000e+00
-1.375683e-01 0.000000e+00
-1.373183e-01 0.000000e+00
-1.370683e-01 0.000000e+00
-1.368183e-01 0.000000e+00
-1.365683e-01 0.000000e+00
-1.363183e-01 0.000000e+00
-1.360683e-01 0.000000e+00
-1.358183e-01 0.000000e+00
-1.355683e-01 0.000000e+00
-1.353183e-01 0.000000e+00
-1.350683e-01 0.000000e+00
-1.348183e-01 0.000000e+00
-1.345683e-01 0.000000e+00
-1.343183e-01 0.000000e+00
-1.340683e-01 0.000000e+00
-1.338183e-01 0.000000e+00
-1.335683e-01 0.000000e+00
-1.333183e-01 0.000000e+00
-1.330683e-01 0.000000e+00
-1.328183e-01 0.000000e+00
-1.325683e-01 0.000000e+00
-1.323183e-01 0.000000e+00
-1.320683e-01 0.000000e+00
-1.318183e-01 0.000000e+00
-1.315683e-01 0.000000e+00
-1.313183e-01 0.000000e+00
-1.310683e-01 0.000000e+00
-1.308183e-01 0.000000e+00
-1.305683e-01 0.000000e+00
-1.303183e-01 0.000000e+00
-1.300683e-01 0.000000e+00
-1.298183e-01 0.000000e+00
-1.295683e-01 0.000000e+00
-1.293183e-01 0.000000e+00
-1.290683e-01 0.000000e+00
-1.288183e-01 0.000000e+00
-1.285683e-01 0.000000e+00
-1.283183e-01 0.000000e+00
-1.280683e-01 0.000000e+00
-1.278183e-01 0.000000e+00
-1.275683e-01 0.000000e+00
-1.273183e-01 0.000000e+00
-1.270683e-01 0.000000e+00
-1.268183e-01 0.000000e+00
-1.265683e-01 0.000000e+00
-1.263183e-01 0.000000e+00
-1.260683e-01 0.000000e+00
-1.258183e-01 0.000000e+00
-1.255683e-01 0.000000e+00
-1.253183e-01 0.000000e+00
-1.250683e-01 0.000000e+00
-1.248183e-01 0.000000e+00
-1.245683e-01 0.000000e+00
-1.243183e-01 0.000000e+00
-1.240683e-01 0.000000e+00
-1.238183e-01 0.000000e+00
-1.235683e-01 0.000000e+00
-1.233183e-01 0.000000e+00
-1.230683e-01 0.000000e+00
-1.228183e-01 0.000000e+00
-1.225683e-01 0.000000e+00
-1.223183e-01 0.000000e+00
-1.220683e-01 0.000000e+00
-1.218183e-01 0.000000e+00
-1.215683e-01 0.000000e+00
-1.213183e-01 0.000000e+00
-1.210683e-01 0.000000e+00
-1.208183e-01 0.000000e+00
-1.205683e-01 0.000000e+00
-1.203183e-01 0.000000e+00
-1.200683e-01 0.000000e+00
-1.198183e-01 0.000000e+00
-1.195683e-01 0.000000e+00
-1.193183e-01 0.000000e+00
-1.190683e-01 0.000000e+00
-1.188183e-01 0.000000e+00
-1.185683e-01 0.000000e+00
-1.183183e-01 0.000000e+00
-1.180683e-01 0.000000e+00
-1.178183e-01 0.000000e+00
-1.175683e-01 0.000000e+00
-1.173183e-01 0.000000e+00
-1.170683e-01 0.000000e+00
-1.168183e-01 0.000000e+00
-1.165683e-01 0.000000e+00
-1.163183e-01 0.000000e+00
-1.160683e-01 0.000000e+00
-1.158183e-01 0.000000e+00
-1.155683e-01 0.000000e+00
-1.153183e-01 0.000000e+00
-1.150683e-01 0.000000e+00
-1.148183e-01 0.000000e+00
-1.145683e-01 0.000000e+00
-1.143183e-01 0.000000e+00
-1.140683e-01 0.000000e+00
-1.138183e-01 0.000000e+00
-1.135683e-01 0.000000e+00
-1.133183e-01 0.000000e+00
-1.130683e-01 0.000000e+00
-1.128183e-01 0.000000e+00
-1.125683e-01 0.000000e+00
-1.123183e-01 0.000000e+00
-1.120683e-01 0.000000e+00
-1.118183e-01 0.000000e+00
-1.115683e-01 0.000000e+00
-1.113183e-01 0.000000e+00
-1.110683e-01 0.000000e+00
-1.108183e-01 0.000000e+00
-1.105683e-01 0.000000e+00
-1.103183e-01 0.000000e+00
-1.100683e-01 0.000000e+00
-1.098183e-01 0.000000e+00
-1.095683e-01 0.000000e+00
-1.093183e-01 0.000000e+00
-1.090683e-01 0.000000e+00
-1.088183e-01 0.000000e+00
-1.085683e-01 0.000000e+00
-1.083183e-01 0.000000e+00
-1.080683e-01 0.000000e+00
-1.078183e-01 0.000000e+00
-1.075683e-01 0.000000e+00
-1.073183e-01 0.000000e+00
-1.070683e-01 0.000000e+00
-1.068183e-01 0.000000e+00
-1.065683e-01 0.000000e+00
-1.063183e-01 0.000000e+00
-1.060683e-01 0.000000e+00
-1.058183e-01 0.000000e+00
-1.055683e-01 0.000000e+00
-1.053183e-01 0.000000e+00
-1.050683e-01 0.000000e+00
-1.048183e-01 0.000000e+00
-1.045683e-01 0.000000e+00
-1.043183e-01 0.000000e+00
-1.040683e-01 0.000000e+00
-1.038183e-01 0.000000e+00
-1.035683e-01 0.000000e+00
-1.033183e-01 0.000000e+00
-1.030683e-01 0.000000e+00
-1.028183e-01 0.000000e+00
-1.025683e-01 0.000000e+00
-1.023183e-01 0.000000e+00
-1.020683e-01 0.000000e+00
-1.018183e-01 0.000000e+00
-1.015683e-01 0.000000e+00
-1.013183e-01 0.000000e+00
-1.010683e-01 0.000000e+00
-1.008183e-01 0.000000e+00
-1.005683e-01 0.000000e+00
-1.003183e-01 0.000000e+00
-1.000683e-01 0.000000e+00
-9.981829e-02 0.000000e+00
-9.956829e-02 0.000000e+00
-9.931830e-02 0.000000e+00
-9.906829e-02 0.000000e+00
-9.881829e-02 0.000000e+00
-9.856829e-02 0.000000e+00
-9.831829e-02 0.000000e+00
-9.806830e-02 0.000000e+00
-9.781829e-02 0.000000e+00
-9.756829e-02 0.000000e+00
-9.731829e-02 0.000000e+00
-9.706829e-02 0.000000e+00
-9.681829e-02 0.000000e+00
-9.656829e-02 0.000000e+00
-9.631829e-02 0.000000e+00
-9.606829e-02 0.000000e+00
-9.581830e-02 0.000000e+00
-9.556829e-02 0.000000e+00
-9.531829e-02 0.000000e+00
-9.506829e-02 0.000000e+00
-9.481829e-02 0.000000e+00
-9.456830e-02 0.000000e+00
-9.431829e-02 0.000000e+00
-9.406829e-02 0.000000e+00
-9.381829e-02 0.000000e+00
-9.356830e-02 0.000000e+00
-9.331829e-02 0.000000e+00
-9.306829e-02 0.000000e+00
-9.281829e-02 0.000000e+00
-9.256829e-02 0.000000e+00
-9.231830e-02 0.000000e+00
-9.206829e-02 0.000000e+00
-9.181829e-02 0.000000e+00
-9.156829e-02 0.000000e+00
-9.131829e-02 0.000000e+00
-9.106829e-02 0.000000e+00
-9.081829e-02 0.000000e+00
-9.056829e-02 0.000000e+00
-9.031829e-02 0.000000e+00
-9.006830e-02 0.000000e+00
-8.981829e-02 0.000000e+00
-8.956829e-02 0.000000e+00
-8.931829e-02 0.000000e+00
-8.906829e-02 0.000000e+00
-8.881830e-02 0.000000e+00
-8.856829e-02 0.000000e+00
-8.831829e-02 0.000000e+00
-8.806829e-02 0.000000e+00
-8.781829e-02 0.000000e+00
-8.756829e-02 0.000000e+00
-8.731829e-02 0.000000e+00
-8.706829e-02 0.000000e+00
-8.681829e-02 0.000000e+00
-8.656830e-02 0.000000e+00
-8.631829e-02 0.000000e+00
-8.606829e-02 0.000000e+00
-8.581829e-02 0.000000e+00
-8.556829e-02 0.000000e+00
-8.531829e-02 0.000000e+00
-8.506829e-02 0.000000e+00
-8.481829e-02 0.000000e+00
-8.456829e-02 0.000000e+00
-8.431830e-02 0.000000e+00
-8.406829e-02 0.000000e+00
-8.381829e-02 0.000000e+00
-8.356829e-02 0.000000e+00
-8.331829e-02 0.000000e+00
-8.306830e-02 0.000000e+00
-8.281829e-02 0.000000e+00
-8.256829e-02 0.000000e+00
-8.231829e-02 0.000000e+00
-8.206829e-02 0.000000e+00
-8.181829e-02 0.000000e+00
-8.156829e-02 0.000000e+00
-8.131829e-02 0.000000e+00
-8.106829e-02 0.000000e+00
-8.081830e-02 0.000000e+00
-8.056829e-02 0.000000e+00
-8.031829e-02 0.000000e+00
-8.006829e-02 0.000000e+00
-7.981829e-02 0.000000e+00
-7.956829e-02 0.000000e+00
-7.931829e-02 0.000000e+00
-7.906829e-02 0.000000e+00
-7.881829e-02 0.000000e+00
-7.856829e-02 0.000000e+00
-7.831829e-02 0.000000e+00
-7.806829e-02 0.000000e+00
-7.781829e-02 0.000000e+00
-7.756829e-02 0.000000e+00
-7.731830e-02 0.000000e+00
-7.706829e-02 0.000000e+00
-7.681829e-02 0.000000e+00
-7.656829e-02 0.000000e+00
-7.631829e-02 0.000000e+00
-7.606829e-02 0.000000e+00
-7.581829e-02 0.000000e+00
-7.556829e-02 0.000000e+00
-7.531829e-02 0.000000e+00
-7.506829e-02 0.000000e+00
-7.481829e-02 0.000000e+00
-7.456829e-02 0.000000e+00
-7.431829e-02 0.000000e+00
-7.406829e-02 0.000000e+00
-7.381829e-02 0.000000e+00
-7.356829e-02 0.000000e+00
-7.331829e-02 0.000000e+00
-7.306829e-02 0.000000e+00
-7.281829e-02 0.000000e+00
-7.256829e-02 0.000000e+00
-7.231829e-02 0.000000e+00
-7.206829e-02 0.000000e+00
-7.181829e-02 0.000000e+00
-7.156829e-02 0.000000e+00
-7.131829e-02 0.000000e+00
-7.106829e-02 0.000000e+00
-7.081829e-02 0.000000e+00
-7.056829e-02 0.000000e+00
-7.031829e-02 0.000000e+00
-7.006829e-02 0.000000e+00
-6.981829e-02 0.000000e+00
-6.956829e-02 0.000000e+00
-6.931829e-02 0.000000e+00
-6.906829e-02 0.000000e+00
-6.881829e-02 0.000000e+00
-6.856829e-02 0.000000e+00
-6.831829e-02 0.000000e+00
-6.806829e-02 0.000000e+00
-6.781829e-02 0.000000e+00
-6.756829e-02 0.000000e+00
-6.731829e-02 0.000000e+00
-6.706829e-02 0.000000e+00
-6.681829e-02 0.000000e+00
-6.656829e-02 0.000000e+00
-6.631829e-02 0.000000e+00
-6.606829e-02 0.000000e+00
-6.581829e-02 0.000000e+00
-6.556829e-02 0.000000e+00
-6.531829e-02 0.000000e+00
-6.506829e-02 0.000000e+00
-6.481829e-02 0.000000e+00
-6.456829e-02 0.000000e+00
-6.431829e-02 0.000000e+00
-6.406829e-02 0.000000e+00
-6.381829e-02 0.000000e+00
-6.356829e-02 0.000000e+00
-6.331829e-02 0.000000e+00
-6.306829e-02 0.000000e+00
-6.281829e-02 0.000000e+00
-6.256829e-02 0.000000e+00
-6.231829e-02 0.000000e+00
-6.206829e-02 0.000000e+00
-6.181829e-02 0.000000e+00
-6.156829e-02 0.000000e+00
-6.131829e-02 0.000000e+00
-6.106829e-02 0.000000e+00
-6.081829e-02 0.000000e+00
-6.056829e-02 0.000000e+00
-6.031829e-02 0.000000e+00
-6.006829e-02 0.000000e+00
-5.981829e-02 0.000000e+00
-5.956829e-02 0.000000e+00
-5.931829e-02 0.000000e+00
-5.906829e-02 0.000000e+00
-5.881829e-02 0.000000e+00
-5.856829e-02 0.000000e+00
-5.831829e-02 0.000000e+00
-5.806829e-02 0.000000e+00
-5.781829e-02 0.000000e+00
-5.756829e-02 0.000000e+00
-5.731829e-02 0.000000e+00
-5.706829e-02 0.000000e+00
-5.681829e-02 0.000000e+00
-5.656829e-02 0.000000e+00
-5.631829e-02 0.000000e+00
-5.606829e-02 0.000000e+00
-5.581829e-02 0.000000e+00
-5.556829e-02 0.000000e+00
-5.531829e-02 0.000000e+00
-5.506829e-02 0.000000e+00
-5.481829e-02 0.000000e+00
-5.456829e-02 0.000000e+00
-5.431829e-02 0.000000e+00
-5.406829e-02 0.000000e+00
-5.381829e-02 0.000000e+00
-5.356829e-02 0.000000e+00
-5.331829e-02 0.000000e+00
-5.306829e-02 0.000000e+00
-5.281829e-02 0.000000e+00
-5.256829e-02 0.000000e+00
-5.231829e-02 0.000000e+00
-5.206829e-02 0.000000e+00
-5.181829e-02 0.000000e+00
-5.156829e-02 0.000000e+00
-5.131829e-02 0.000000e+00
-5.106829e-02 0.000000e+00
-5.081829e-02 0.000000e+00
-5.056829e-02 0.000000e+00
-5.031829e-02 0.000000e+00
-5.006829e-02 0.000000e+00
-4.981829e-02 0.000000e+00
-4.956829e-02 0.000000e+00
-4.931829e-02 0.000000e+00
-4.906829e-02 0.000000e+00
-4.881829e-02 0.000000e+00
-4.856829e-02 0.000000e+00
-4.831829e-02 0.000000e+00
-4.806829e-02 0.000000e+00
-4.781829e-02 0.000000e+00
-4.756829e-02 0.000000e+00
-4.731829e-02 0.000000e+00
-4.706829e-02 0.000000e+00
-4.681829e-02 0.000000e+00
-4.656829e-02 0.000000e+00
-4.631829e-02 0.000000e+00
-4.606829e-02 0.000000e+00
-4.581829e-02 0.000000e+00
-4.556829e-02 0.000000e+00
-4.531829e-02 0.000000e+00
-4.506829e-02 0.000000e+00
-4.481829e-02 0.000000e+00
-4.456829e-02 0.000000e+00
-4.431829e-02 0.000000e+00
-4.406829e-02 0.000000e+00
-4.381829e-02 0.000000e+00
-4.356829e-02 0.000000e+00
-4.331829e-02 0.000000e+00
-4.306829e-02 0.000000e+00
-4.281829e-02 0.000000e+00
-4.256829e-02 0.000000e+00
-4.231829e-02 0.000000e+00
-4.206829e-02 0.000000e+00
-4.181829e-02 0.000000e+00
-4.156829e-02 0.000000e+00
-4.131829e-02 0.000000e+00
-4.106829e-02 0.000000e+00
-4.081829e-02 0.000000e+00
-4.056829e-02 0.000000e+00
-4.031829e-02 0.000000e+00
-4.006829e-02 0.000000e+00
-3.981829e-02 0.000000e+00
-3.956829e-02 0.000000e+00
-3.931829e-02 0.000000e+00
-3.906829e-02 0.000000e+00
-3.881829e-02 0.000000e+00
-3.856829e-02 0.000000e+00
-3.831829e-02 0.000000e+00
-3.806829e-02 0.000000e+00
-3.781829e-02 0.000000e+00
-3.756829e-02 0.000000e+00
-3.731829e-02 0.000000e+00
-3.706829e-02 0.000000e+00
-3.681829e-02 0.000000e+00
-3.656829e-02 0.000000e+00
-3.631829e-02 0.000000e+00
-3.606829e-02 0.000000e+00
-3.581829e-02 0.000000e+00
-3.556829e-02 0.000000e+00
-3.531829e-02 0.000000e+00
-3.506829e-02 0.000000e+00
-3.481829e-02 0.000000e+00
-3.456829e-02 0.000000e+00
-3.431829e-02 0.000000e+00
-3.406829e-02 0.000000e+00
-3.381829e-02 0.000000e+00
-3.356829e-02 0.000000e+00
-3.331829e-02 0.000000e+00
-3.306829e-02 0.000000e+00
-3.281829e-02 0.000000e+00
-3.256829e-02 0.000000e+00
-3.231829e-02 0.000000e+00
-3.206829e-02 0.000000e+00
-3.181829e-02 0.000000e+00
-3.156829e-02 0.000000e+00
-3.131829e-02 0.000000e+00
-3.106829e-02 0.000000e+00
-3.081829e-02 0.000000e+00
-3.056829e-02 0.000000e+00
-3.031829e-02 0.000000e+00
-3.006829e-02 0.000000e+00
-2.981829e-02 0.000000e+00
-2.956829e-02 0.000000e+00
-2.931829e-02 0.000000e+00
-2.906829e-02 0.000000e+00
-2.881829e-02 0.000000e+00
-2.856829e-02 0.000000e+00
-2.831829e-02 0.000000e+00
-2.806829e-02 0.000000e+00
-2.781828e-02 0.000000e+00
-2.756829e-02 0.000000e+00
-2.731829e-02 0.000000e+00
-2.706829e-02 0.000000e+00
-2.681829e-02 0.000000e+00
-2.656829e-02 0.000000e+00
-2.631829e-02 0.000000e+00
-2.606829e-02 0.000000e+00
-2.581829e-02 0.000000e+00
-2.556829e-02 0.000000e+00
-2.531829e-02 0.000000e+00
-2.506829e-02 0.000000e+00
-2.481829e-02 0.000000e+00
-2.456829e-02 0.000000e+00
-2.431829e-02 0.000000e+00
-2.406829e-02 0.000000e+00
-2.381829e-02 0.000000e+00
-2.356829e-02 0.000000e+00
-2.331829e-02 0.000000e+00
-2.306829e-02 0.000000e+00
-2.281829e-02 0.000000e+00
-2.256829e-02 0.000000e+00
-2.231829e-02 0.000000e+00
-2.206829e-02 0.000000e+00
-2.181829e-02 0.000000e+00
-2.156829e-02 0.000000e+00
-2.131829e-02 0.000000e+00
-2.106829e-02 0.000000e+00
-2.081829e-02 0.000000e+00
-2.056829e-02 0.000000e+00
-2.031828e-02 0.000000e+00
-2.006829e-02 0.000000e+00
-1.981829e-02 0.000000e+00
-1.956829e-02 0.000000e+00
-1.931829e-02 0.000000e+00
-1.906829e-02 0.000000e+00
-1.881829e-02 0.000000e+00
-1.856828e-02 0.000000e+00
-1.831829e-02 0.000000e+00
-1.806829e-02 0.000000e+00
-1.781829e-02 0.000000e+00
-1.756829e-02 0.000000e+00
-1.731829e-02 -1.401298e-45
-1.706829e-02 0.000000e+00
-1.681828e-02 0.000000e+00
-1.656829e-02 1.401298e-45
-1.631829e-02 2.802597e-45
-1.606829e-02 1.401298e-45
-1.581829e-02 1.401298e-45
-1.556829e-02 -5.605194e-45
-1.531829e-02 -1.121039e-44
-1.506829e-02 -1.821688e-44
-1.481829e-02 -1.401298e-44
-1.456829e-02 -1.261169e-44
-1.431829e-02 -2.802597e-45
-1.406829e-02 1.681558e-44
-1.381829e-02 4.203895e-44
-1.356828e-02 4.904545e-44
-1.331829e-02 5.324934e-44
-1.306829e-02 4.203895e-44
-1.281829e-02 -1.261169e-44
-1.256830e-02 -6.866362e-44
-1.231828e-02 -1.373272e-43
-1.206829e-02 -1.709584e-43
-1.181829e-02 -1.625506e-43
-1.156829e-02 -7.847271e-44
-1.131828e-02 6.445973e-44
-1.106828e-02 2.634441e-43
-1.081829e-02 4.428103e-43
-1.056829e-02 5.310921e-43
-1.031829e-02 4.470142e-43
-1.006828e-02 1.527415e-43
-9.818286e-03 -3.391142e-43
-9.568289e-03 -9.206531e-43
-9.318292e-03 -1.398496e-42
-9.068280e-03 -1.540027e-42
-8.818284e-03 -1.149065e-42
-8.568287e-03 -1.289195e-43
-8.318290e-03 1.390088e-42
-8.068293e-03 3.045022e-42
-7.818282e-03 4.237527e-42
-7.568285e-03 4.304789e-42
-7.318288e-03 2.724124e-42
-7.068291e-03 -6.011570e-43
-6.818295e-03 -5.148371e-42
-6.568283e-03 -9.654946e-42
-6.318286e-03 -1.237627e-41
-6.068289e-03 -1.146542e-41
-5.818292e-03 -5.732712e-42
-5.568281e-03 4.663521e-42
-5.318284e-03 1.769279e-41
-5.068287e-03 2.942587e-41
-4.818290e-03 3.478723e-41
-4.568294e-03 2.901529e-41
-4.318282e-03 9.657749e-42
-4.068285e-03 -2.151974e-41
-3.818288e-03 -5.745324e-41
-3.568292e-03 -8.630177e-41
-3.318280e-03 -9.404114e-41
-3.068283e-03 -6.897611e-41
-2.818286e-03 -7.204075e-42
-2.568290e-03 8.269062e-41
-2.318293e-03 1.777982e-40
-2.068281e-03 2.438764e-40
-1.818284e-03 2.438624e-40
-1.568288e-03 1.509689e-40
-1.318291e-03 -3.688638e-41
-1.068294e-03 -2.863497e-40
-8.182824e-04 -5.271531e-40
-5.682856e-04 -6.642057e-40
-3.182888e-04 -6.040129e-40
-6.829202e-05 -2.910539e-40
1.817197e-04 2.560649e-40
4.317164e-04 9.223332e-40
6.817132e-04 1.502205e-39
9.317100e-04 1.742226e-39
1.181707e-03 1.418676e-39
1.431718e-03 4.340998e-40
1.681715e-03 -1.096558e-39
1.931712e-03 -2.807197e-39
2.181709e-03 -4.122264e-39
2.431706e-03 -4.393938e-39
2.681717e-03 -3.119530e-39
2.931714e-03 -1.870551e-40
3.181711e-03 3.933369e-39
3.431708e-03 8.145492e-39
3.681719e-03 1.090299e-38
3.931716e-03 1.062209e-38
4.181713e-03 6.263881e-39
4.431710e-03 -2.069988e-39
4.681706e-03 -1.274835e-38
4.931718e-03 -2.265237e-38
5.181715e-03 -2.779285e-38
5.431712e-03 -2.448402e-38
5.681708e-03 -1.083771e-38
5.931720e-03 1.186625e-38
6.181717e-03 3.849449e-38
6.431714e-03 6.056809e-38
6.681710e-03 6.821003e-38
6.931707e-03 5.332593e-38
7.181719e-03 1.327337e-38
7.431716e-03 -4.617810e-38
7.681713e-03 -1.099613e-37
7.931709e-03 -1.559790e-37
8.181706e-03 -1.608079e-37
8.431718e-03 -1.079400e-37
8.681715e-03 3.613943e-39
8.931711e-03 1.534380e-37
9.181708e-03 2.997041e-37
9.431720e-03 3.871242e-37
9.681717e-03 3.627103e-37
9.931713e-03 1.962184e-37
1.018171e-02 -1.006824e-37
1.043171e-02 -4.640914e-37
1.068172e-02 -7.833223e-37
1.093172e-02 -9.255733e-37
1.118171e-02 -7.773304e-37
1.143171e-02 -2.929294e-37
1.168172e-02 4.652458e-37
1.193172e-02 1.312693e-36
1.218171e-02 1.969000e-36
1.243171e-02 2.128393e-36
1.268171e-02 1.563649e-36
1.293172e-02 2.363107e-37
1.318172e-02 -1.625349e-36
1.343171e-02 -3.520259e-36
1.368171e-02 -4.766818e-36
1.393171e-02 -4.692484e-36
1.418172e-02 -2.883442e-36
1.443172e-02 5.774941e-37
1.468171e-02 4.976193e-36
1.493171e-02 9.019447e-36
1.518172e-02 1.111680e-35
1.543172e-02 9.864208e-36
1.568171e-02 4.618405e-36
1.593171e-02 -4.018935e-36
1.618171e-02 -1.401417e-35
1.643172e-02 -2.217729e-35
1.668172e-02 -2.494952e-35
1.693171e-02 -1.958094e-35
1.718171e-02 -5.393324e-36
1.743171e-02 1.530578e-35
1.768172e-02 3.710383e-35
1.793171e-02 5.245727e-35
1.818171e-02 5.375290e-35
1.843171e-02 3.605125e-35
1.868172e-02 -2.708760e-37
1.893172e-02 -4.797380e-35
1.918171e-02 -9.341368e-35
1.943171e-02 -1.194719e-34
1.968171e-02 -1.106662e-34
1.993172e-02 -5.926993e-35
2.018172e-02 2.946941e-35
2.043171e-02 1.351885e-34
2.068171e-02 2.250767e-34
2.093172e-02 2.618790e-34
2.118172e-02 2.159802e-34
2.143171e-02 7.845035e-35
2.168171e-02 -1.293795e-34
2.193171e-02 -3.543418e-34
2.218172e-02 -5.208744e-34
2.243172e-02 -5.514252e-34
2.268171e-02 -3.937779e-34
2.293171e-02 -4.752462e-35
2.318171e-02 4.201331e-34
2.343172e-02 8.781791e-34
2.368172e-02 1.159700e-33
2.393171e-02 1.111094e-33
2.418171e-02 6.512158e-34
2.443172e-02 -1.779037e-34
2.468172e-02 -1.189515e-33
2.493171e-02 -2.076212e-33
2.518171e-02 -2.484450e-33
2.543171e-02 -2.127597e-33
2.568172e-02 -9.082749e-34
2.593172e-02 9.912819e-34
2.618171e-02 3.092621e-33
2.643171e-02 4.705758e-33
2.668172e-02 5.114267e-33
2.693172e-02 3.823596e-33
2.718171e-02 8.019180e-34
2.743171e-02 -3.374928e-33
2.768171e-02 -7.553952e-33
2.793172e-02 -1.025052e-32
2.818172e-02 -1.008268e-32
2.843171e-02 -6.292966e-33
2.868171e-02 8.038704e-34
2.893171e-02 9.628224e-33
2.918172e-02 1.753938e-32
2.943172e-02 2.147498e-32
2.968171e-02 1.892115e-32
2.993171e-02 8.960278e-33
3.018172e-02 -6.955253e-33
3.043172e-02 -2.485589e-32
3.068171e-02 -3.896179e-32
3.093171e-02 -4.323003e-32
3.118171e-02 -3.342508e-32
3.143172e-02 -9.120918e-33
3.168172e-02 2.509598e-32
3.193171e-02 5.987094e-32
3.218171e-02 8.308388e-32
3.243172e-02 8.338189e-32
3.268172e-02 5.440592e-32
3.293172e-02 -1.598461e-33
3.318171e-02 -7.223542e-32
3.343171e-02 -1.365867e-31
3.368172e-02 -1.702960e-31
3.393172e-02 -1.532422e-31
3.418171e-02 -7.778214e-32
3.443171e-02 4.520266e-32
3.468171e-02 1.851833e-31
3.493172e-02 2.974992e-31
3.518172e-02 3.353339e-31
3.543171e-02 2.656355e-31
3.568171e-02 8.440570e-32
3.593172e-02 -1.742099e-31
3.618172e-02 -4.398773e-31
3.643171e-02 -6.212944e-31
3.668171e-02 -6.327935e-31
3.693171e-02 -4.259295e-31
3.718172e-02 -1.622098e-32
3.743172e-02 5.056388e-31
3.768171e-02 9.860943e-31
3.793171e-02 1.246329e-30
3.818171e-02 1.138477e-30
3.843172e-02 6.054579e-31
3.868172e-02 -2.756496e-31
3.893171e-02 -1.286200e-30
3.918171e-02 -2.106342e-30
3.943172e-02 -2.401192e-30
3.968172e-02 -1.934246e-30
3.993171e-02 -6.751360e-31
4.018171e-02 1.137492e-30
4.043171e-02 3.011424e-30
4.068172e-02 4.308999e-30
4.093172e-02 4.433349e-30
4.118171e-02 3.047145e-30
4.143171e-02 2.553801e-31
4.168172e-02 -3.320823e-30
4.193172e-02 -6.632369e-30
4.218172e-02 -8.461812e-30
4.243171e-02 -7.806167e-30
4.268171e-02 -4.279600e-30
4.293172e-02 1.599851e-30
4.318172e-02 8.368288e-30
4.343171e-02 1.389352e-29
4.368171e-02 1.595365e-29
4.393171e-02 1.298843e-29
4.418172e-02 4.803294e-30
4.443172e-02 -7.030879e-30
4.468171e-02 -1.929565e-29
4.493171e-02 -2.784490e-29
4.518172e-02 -2.882133e-29
4.543172e-02 -2.006573e-29
4.568172e-02 -2.274568e-30
4.593171e-02 2.055728e-29
4.618171e-02 4.173402e-29
4.643172e-02 5.353715e-29
4.668172e-02 4.965842e-29
4.693171e-02 2.772120e-29
4.718171e-02 -8.964867e-30
4.743172e-02 -5.120696e-29
4.768172e-02 -8.572580e-29
4.793172e-02 -9.879174e-29
4.818171e-02 -8.087062e-29
4.843171e-02 -3.090390e-29
4.868172e-02 4.134640e-29
4.893172e-02 1.161525e-28
4.918171e-02 1.683239e-28
4.943171e-02 1.746443e-28
4.968171e-02 1.223479e-28
4.993172e-02 1.593830e-29
5.018172e-02 -1.203909e-28
5.043171e-02 -2.465833e-28
5.068171e-02 -3.169043e-28
5.093172e-02 -2.944159e-28
5.118172e-02 -1.657170e-28
5.143172e-02 4.908220e-29
5.168171e-02 2.956843e-28
5.193171e-02 4.965656e-28
5.218172e-02 5.724247e-28
5.243172e-02 4.690798e-28
5.268171e-02 1.817635e-28
5.293171e-02 -2.321521e-28
5.318171e-02 -6.589798e-28
5.343172e-02 -9.552307e-28
5.368172e-02 -9.902966e-28
5.393171e-02 -6.941906e-28
5.418171e-02 -9.503409e-29
5.443172e-02 6.688988e-28
5.468172e-02 1.372338e-27
5.493172e-02 1.761177e-27
5.518171e-02 1.633322e-27
5.543171e-02 9.194182e-28
5.568172e-02 -2.643422e-28
5.593172e-02 -1.615566e-27
5.618171e-02 -2.708758e-27
5.643171e-02 -3.114368e-27
5.668172e-02 -2.545035e-27
5.693172e-02 -9.847279e-28
5.718172e-02 1.247237e-27
5.743171e-02 3.533310e-27
5.768171e-02 5.104938e-27
5.793172e-02 5.273094e-27
5.818172e-02 3.680862e-27
5.843171e-02 4.962713e-28
5.868171e-02 -3.533430e-27
5.893171e-02 -7.214112e-27
5.918172e-02 -9.217948e-27
5.943172e-02 -8.508554e-27
5.968171e-02 -4.756211e-27
5.993171e-02 1.400960e-27
6.018172e-02 8.371556e-27
6.043172e-02 1.395403e-26
6.068172e-02 1.595991e-26
6.093171e-02 1.296247e-26
6.118171e-02 4.941459e-27
6.143172e-02 -6.418137e-27
6.168172e-02 -1.794691e-26
6.193171e-02 -2.576353e-26
6.218171e-02 -2.644931e-26
6.243172e-02 -1.830678e-26
6.268172e-02 -2.290465e-27
6.293172e-02 1.777476e-26
6.318171e-02 3.590796e-26
6.343171e-02 4.556582e-26
6.368172e-02 4.175234e-26
6.393172e-02 2.303013e-26
6.418172e-02 -7.270578e-27
6.443171e-02 -4.121980e-26
6.468171e-02 -6.805283e-26
6.493172e-02 -7.725391e-26
6.518172e-02 -6.217444e-26
6.543171e-02 -2.306296e-26
6.568171e-02 3.164133e-26
6.593172e-02 8.653706e-26
6.618172e-02 1.230967e-25
6.643172e-02 1.253247e-25
6.668171e-02 8.567869e-26
6.693171e-02 9.293858e-27
6.718172e-02 -8.525605e-26
6.743172e-02 -1.696033e-25
6.768171e-02 -2.132649e-25
6.793171e-02 -1.935431e-25
6.818172e-02 -1.047244e-25
6.843172e-02 3.667566e-26
6.868172e-02 1.931720e-25
6.893171e-02 3.149101e-25
6.918171e-02 3.541175e-25
6.943172e-02 2.816469e-25
6.968172e-02 1.004130e-25
6.993172e-02 -1.494218e-25
7.018171e-02 -3.968539e-25
7.043171e-02 -5.580945e-25
7.068172e-02 -5.623994e-25
7.093172e-02 -3.784223e-25
7.118171e-02 -3.228633e-26
7.143171e-02 3.903088e-25
7.168172e-02 7.616865e-25
7.193172e-02 9.472840e-25
7.218172e-02 8.496939e-25
7.243171e-02 4.484708e-25
7.268171e-02 -1.785235e-25
7.293172e-02 -8.629063e-25
7.318172e-02 -1.385523e-24
7.343172e-02 -1.540719e-24
7.368171e-02 -1.208050e-24
7.393171e-02 -4.086311e-25
7.418172e-02 6.757156e-25
7.443172e-02 1.733851e-24
7.468171e-02 2.406027e-24
7.493171e-02 2.395819e-24
7.518172e-02 1.581364e-24
7.543172e-02 8.830985e-26
7.568172e-02 -1.707069e-24
7.593171e-02 -3.258418e-24
7.618171e-02 -4.001691e-24
7.643172e-02 -3.541213e-24
7.668172e-02 -1.812976e-24
7.693172e-02 8.338214e-25
7.718171e-02 3.679209e-24
7.743172e-02 5.806970e-24
7.768172e-02 6.376427e-24
7.793172e-02 4.917730e-24
7.818171e-02 1.555693e-24
7.843171e-02 -2.925688e-24
7.868172e-02 -7.228193e-24
7.893172e-02 -9.882482e-24
7.918172e-02 -9.709510e-24
7.943171e-02 -6.266562e-24
7.968171e-02 -1.256006e-25
7.993172e-02 7.138971e-24
8.018172e-02 1.330026e-23
8.043171e-02 1.610878e-23
8.068171e-02 1.404038e-23
8.093172e-02 6.932585e-24
8.118172e-02 -3.723354e-24
8.143172e-02 -1.499245e-23
8.168171e-02 -2.322511e-23
8.193171e-02 -2.515175e-23
8.218172e-02 -1.904003e-23
8.243172e-02 -5.538620e-24
8.268172e-02 1.212871e-23
8.293171e-02 2.879551e-23
8.318172e-02 3.874229e-23
8.343172e-02 3.750894e-23
8.368172e-02 2.359696e-23
8.393171e-02 -5.258507e-25
8.418171e-02 -2.857254e-23
8.443172e-02 -5.188281e-23
8.468172e-02 -6.190532e-23
8.493172e-02 -5.306395e-23
8.518171e-02 -2.511651e-23
8.543171e-02 1.586610e-23
8.568172e-02 5.845918e-23
8.593172e-02 8.878748e-23
8.618172e-02 9.473087e-23
8.643171e-02 7.024846e-23
8.668172e-02 1.840066e-23
8.693172e-02 -4.815440e-23
8.718172e-02 -1.097752e-22
8.743171e-02 -1.452068e-22
8.768171e-02 -1.383767e-22
8.793172e-02 -8.458733e-23
8.818172e-02 6.050852e-24
8.843172e-02 1.095444e-22
8.868171e-02 1.937061e-22
8.893172e-02 2.274977e-22
8.918172e-02 1.915162e-22
8.943172e-02 8.632604e-23
8.968171e-02 -6.448224e-23
8.993171e-02 -2.183807e-22
9.018172e-02 -3.249384e-22
9.043172e-02 -3.412619e-22
9.068172e-02 -2.474252e-22
9.093171e-02 -5.676664e-23
9.118171e-02 1.831906e-22
9.143172e-02 4.010027e-22
9.168172e-02 5.211395e-22
9.193172e-02 4.883385e-22
9.218171e-02 2.891234e-22
9.243172e-02 -3.709885e-23
9.268172e-02 -4.026931e-22
9.293172e-02 -6.931577e-22
9.318171e-02 -8.007522e-22
9.343171e-02 -6.611909e-22
9.368172e-02 -2.817255e-22
9.393172e-02 2.500285e-22
9.418172e-02 7.824652e-22
9.443171e-02 1.140083e-21
9.468171e-02 1.177735e-21
9.493172e-02 8.332891e-22
9.518172e-02 1.610356e-22
9.543172e-02 -6.682012e-22
9.568171e-02 -1.405430e-21
9.593172e-02 -1.793601e-21
9.618172e-02 -1.651184e-21
9.643172e-02 -9.436517e-22
9.668171e-02 1.825900e-22
9.693171e-02 1.420792e-21
9.718172e-02 2.380513e-21
9.743172e-02 2.703562e-21
9.768172e-02 2.186960e-21
9.793171e-02 8.733658e-22
9.818172e-02 -9.257689e-22
9.843172e-02 -2.692163e-21
9.868172e-02 -3.840189e-21
9.893171e-02 -3.899554e-21
9.918171e-02 -2.687434e-21
9.943172e-02 -4.117404e-22
9.968172e-02 2.338856e-21
9.993172e-02 4.731753e-21
1.001817e-01 5.927960e-21
1.004317e-01 5.357066e-21
1.006817e-01 2.944641e-21
1.009317e-01 -7.898625e-22
1.011817e-01 -4.816110e-21
1.014317e-01 -7.856156e-21
1.016817e-01 -8.767901e-21
1.019317e-01 -6.940220e-21
1.021817e-01 -2.571490e-21
1.024317e-01 3.277187e-21
1.026817e-01 8.904472e-21
1.029317e-01 1.243402e-20
1.031817e-01 1.240488e-20
1.034317e-01 8.311134e-21
1.036817e-01 9.060636e-22
1.039317e-01 -7.863016e-21
1.041817e-01 -1.532132e-20
1.044317e-01 -1.883901e-20
1.046817e-01 -1.669977e-20
1.049317e-01 -8.794308e-21
1.051817e-01 3.114173e-21
1.054317e-01 1.570051e-20
1.056817e-01 2.494452e-20
1.059317e-01 2.734908e-20
1.061817e-01 2.115944e-20
1.064317e-01 7.184414e-21
1.066817e-01 -1.110651e-20
1.069317e-01 -2.834371e-20
1.071817e-01 -3.874751e-20
1.074317e-01 -3.796156e-20
1.076817e-01 -2.467734e-20
1.079317e-01 -1.488094e-21
1.081817e-01 2.541499e-20
1.084317e-01 4.776617e-20
1.086817e-01 5.763907e-20
1.089317e-01 5.008432e-20
1.091817e-01 2.515878e-20
1.094317e-01 -1.140188e-20
1.096817e-01 -4.927446e-20
1.099317e-01 -7.628915e-20
1.101817e-01 -8.215016e-20
1.104317e-01 -6.205396e-20
1.106817e-01 -1.900774e-20
1.109317e-01 3.608686e-20
1.111817e-01 8.691692e-20
1.114317e-01 1.163456e-19
1.116817e-01 1.118910e-19
1.119317e-01 7.042646e-20
1.121817e-01 4.630588e-22
1.124317e-01 -7.905762e-20
1.126817e-01 -1.435362e-19
1.129317e-01 -1.699741e-19
1.131817e-01 -1.446827e-19
1.134317e-01 -6.898711e-20
1.136817e-01 3.920377e-20
1.139317e-01 1.490237e-19
1.141817e-01 2.249803e-19
1.144317e-01 2.378981e-19
1.146817e-01 1.752523e-19
1.149317e-01 4.744238e-20
1.151817e-01 -1.125728e-19
1.154317e-01 -2.570343e-19
1.156817e-01 -3.369789e-19
1.159317e-01 -3.180081e-19
1.161817e-01 -1.933771e-19
1.164317e-01 1.020657e-20
1.166817e-01 2.369144e-19
1.169317e-01 4.161633e-19
1.171817e-01 4.836440e-19
1.174317e-01 4.030285e-19
1.176817e-01 1.813840e-19
1.179317e-01 -1.275354e-19
1.181817e-01 -4.347477e-19
1.184317e-01 -6.404217e-19
1.186817e-01 -6.649000e-19
1.189317e-01 -4.771360e-19
1.191817e-01 -1.109654e-19
1.194317e-01 3.376213e-19
1.196817e-01 7.337358e-19
1.199317e-01 9.424238e-19
1.201817e-01 8.724317e-19
1.204317e-01 5.113135e-19
1.206817e-01 -6.061242e-20
1.209317e-01 -6.846485e-19
1.211817e-01 -1.165333e-18
1.214317e-01 -1.329190e-18
1.216817e-01 -1.083689e-18
1.219317e-01 -4.573112e-19
1.221817e-01 3.946297e-19
1.224317e-01 1.224553e-18
1.226817e-01 1.761361e-18
1.229317e-01 1.795313e-18
1.231817e-01 1.253493e-18
1.234317e-01 2.402516e-19
1.236817e-01 -9.747912e-19
1.239317e-01 -2.023736e-18
1.241817e-01 -2.547407e-18
1.244317e-01 -2.312612e-18
1.246817e-01 -1.302901e-18
1.249317e-01 2.497554e-19
1.251817e-01 1.909837e-18
1.254317e-01 3.154426e-18
1.256817e-01 3.531668e-18
1.259317e-01 2.815378e-18
1.261817e-01 1.105270e-18
1.264317e-01 -1.166117e-18
1.266817e-01 -3.333263e-18
1.269317e-01 -4.684766e-18
1.271817e-01 -4.687586e-18
1.274317e-01 -3.180411e-18
1.276817e-01 -4.698968e-19
1.279317e-01 2.712810e-18
1.281817e-01 5.397801e-18
1.284317e-01 6.661180e-18
1.286817e-01 5.928567e-18
1.289317e-01 3.201495e-18
1.291817e-01 -8.754892e-19
1.294317e-01 -5.147360e-18
1.296817e-01 -8.261367e-18
1.299317e-01 -9.080099e-18
1.301817e-01 -7.073159e-18
1.304317e-01 -2.558649e-18
1.306817e-01 3.300992e-18
1.309317e-01 8.775839e-18
1.311817e-01 1.206025e-17
1.314317e-01 1.184575e-17
1.316817e-01 7.799589e-18
1.319317e-01 7.838053e-19
1.321817e-01 -7.285487e-18
1.324317e-01 -1.393449e-17
1.326817e-01 -1.686438e-17
1.329317e-01 -1.471095e-17
1.331817e-01 -7.589744e-18
1.334317e-01 2.773513e-18
1.336817e-01 1.341592e-17
1.339317e-01 2.095075e-17
1.341817e-01 2.260884e-17
1.344317e-01 1.719831e-17
1.346817e-01 5.664597e-18
1.349317e-01 -8.974248e-18
1.351817e-01 -2.236613e-17
1.354317e-01 -3.007476e-17
1.356817e-01 -2.899560e-17
1.359317e-01 -1.850101e-17
1.361817e-01 -9.160852e-19
1.364317e-01 1.890176e-17
1.366817e-01 3.484331e-17
1.369317e-01 4.137123e-17
1.371817e-01 3.536045e-17
1.374317e-01 1.736549e-17
1.376817e-01 -8.155084e-18
1.379317e-01 -3.384335e-17
1.381817e-01 -5.148693e-17
1.384317e-01 -5.456060e-17
1.386817e-01 -4.050206e-17
1.389317e-01 -1.196249e-17
1.391817e-01 2.348063e-17
1.394317e-01 5.522205e-17
1.396817e-01 7.270285e-17
1.399317e-01 6.879957e-17
1.401817e-01 4.247492e-17
1.404317e-01 -2.396094e-19
1.406817e-01 -4.742241e-17
1.409317e-01 -8.445404e-17