-1.388183e-01 0.000000e+00
-1.385683e-01 0.000000e+00
-1.383183e-01 0.000000e+00
-1.380683e-01 0.000000e+00
-1.378183e-01 0.000000e+00
-1.375683e-01 0.000000e+00
-1.373183e-01 0.000000e+00
-1.370683e-01 0.000000e+00
-1.368183e-01 0.000000e+00
-1.365683e-01 0.000000e+00
-1.363183e-01 0.000000e+00
-1.360683e-01 0.000000e+00
-1.358183e-01 0.000000e+00
-1.355683e-01 0.000000e+00
-1.353183e-01 0.000000e+00
-1.350683e-01 0.000000e+00
-1.348183e-01 0.000000e+00
-1.345683e-01 0.000000e+00
-1.343183e-01 0.000000e+00
-1.340683e-01 0.000000e+00
-1.338183e-01 0.000000e+00
-1.335683e-01 0.000000e+00
-1.333183e-01 0.000000e+00
-1.330683e-01 0.000000e+00
-1.328183e-01 0.000000e+00
-1.325683e-01 0.000000e+00
-1.323183e-01 0.000000e+00
-1.320683e-01 0.000000e+00
-1.318183e-01 0.000000e+00
-1.315683e-01 0.000000e+00
-1.313183e-01 0.000000e+00
-1.310683e-01 0.000000e+00
-1.308183e-01 0.000000e+00
-1.305683e-01 0.000000e+00
-1.303183e-01 0.000000e+00
-1.300683e-01 0.000000e+00
-1.298183e-01 0.000000e+00
-1.295683e-01 0.000000e+00
-1.293183e-01 0.000000e+00
-1.290683e-01 0.000000e+00
-1.288183e-01 0.000000e+00
-1.285683e-01 0.000000e+00
-1.283183e-01 0.000000e+00
-1.280683e-01 0.000000e+00
-1.278183e-01 0.000000e+00
-1.275683e-01 0.000000e+00
-1.273183e-01 0.000000e+00
-1.270683e-01 0.000000e+00
-1.268183e-01 0.000000e+00
-1.265683e-01 0.000000e+00
-1.263183e-01 0.000000e+00
-1.260683e-01 0.000000e+00
-1.258183e-01 0.000000e+00
-1.255683e-01 0.000000e+00
-1.253183e-01 0.000000e+00
-1.250683e-01 0.000000e+00
-1.248183e-01 0.000000e+00
-1.245683e-01 0.000000e+00
-1.243183e-01 0.000000e+00
-1.240683e-01 0.000000e+00
-1.238183e-01 0.000000e+00
-1.235683e-01 0.000000e+00
-1.233183e-01 0.000000e+00
-1.230683e-01 0.000000e+00
-1.228183e-01 0.000000e+00
-1.225683e-01 0.000000e+00
-1.223183e-01 0.000000e+00
-1.220683e-01 0.000000e+00
-1.218183e-01 0.000000e+00
-1.215683e-01 0.000000e+00
-1.213183e-01 0.000000e+00
-1.210683e-01 0.000000e+00
-1.208183e-01 0.000000e+00
-1.205683e-01 0.000000e+00
-1.203183e-01 0.000000e+00
-1.200683e-01 0.000000e+00
-1.198183e-01 0.000000e+00
-1.195683e-01 0.000000e+00
-1.193183e-01 0.000000e+00
-1.190683e-01 0.000000e+00
-1.188183e-01 0.000000e+00
-1.185683e-01 0.000000e+00
-1.183183e-01 0.000000e+00
-1.180683e-01 0.000000e+00
-1.178183e-01 0.000000e+00
-1.175683e-01 0.000000e+00
-1.173183e-01 0.000000e+00
-1.170683e-01 0.000000e+00
-1.168183e-01 0.000000e+00
-1.165683e-01 0.000000e+00
-1.163183e-01 0.000000e+00
-1.160683e-01 0.000000e+00
-1.158183e-01 0.000000e+00
-1.155683e-01 0.000000e+00
-1.153183e-01 0.000000e+00
-1.150683e-01 0.000000e+00
-1.148183e-01 0.000000e+00
-1.145683e-01 0.000000e+00
-1.143183e-01 0.000000e+00
-1.140683e-01 0.000000e+00
-1.138183e-01 0.000000e+00
-1.135683e-01 0.000000e+00
-1.133183e-01 0.000000e+00
-1.130683e-01 0.000000e+00
-1.128183e-01 0.000000e+00
-1.125683e-01 0.000000e+00
-1.123183e-01 0.000000e+00
-1.120683e-01 0.000000e+00
-1.118183e-01 0.000000e+00
-1.115683e-01 0.000000e+00
-1.113183e-01 0.000000e+00
-1.110683e-01 0.000000e+00
-1.108183e-01 0.000000e+00
-1.105683e-01 0.000000e+00
-1.103183e-01 0.000000e+00
-1.100683e-01 0.000000e+00
-1.098183e-01 0.000000e+00
-1.095683e-01 0.000000e+00
-1.093183e-01 0.000000e+00
-1.090683e-01 0.000000e+00
-1.088183e-01 0.000000e+00
-1.085683e-01 0.000000e+00
-1.083183e-01 0.000000e+00
-1.080683e-01 0.000000e+00
-1.078183e-01 0.000000e+00
-1.075683e-01 0.000000e+00
-1.073183e-01 0.000000e+00
-1.070683e-01 0.000000e+00
-1.068183e-01 0.000000e+00
-1.065683e-01 0.000000e+00
-1.063183e-01 0.000000e+00
-1.060683e-01 0.000000e+00
-1.058183e-01 0.000000e+00
-1.055683e-01 0.000000e+00
-1.053183e-01 0.000000e+00
-1.050683e-01 0.000000e+00
-1.048183e-01 0.000000e+00
-1.045683e-01 0.000000e+00
-1.043183e-01 0.000000e+00
-1.040683e-01 0.000000e+00
-1.038183e-01 0.000000e+00
-1.035683e-01 0.000000e+00
-1.033183e-01 0.000000e+00
-1.030683e-01 0.000000e+00
-1.028183e-01 0.000000e+00
-1.025683e-01 0.000000e+00
-1.023183e-01 0.000000e+00
-1.020683e-01 0.000000e+00
-1.018183e-01 0.000000e+00
-1.015683e-01 0.000000e+00
-1.013183e-01 0.000000e+00
-1.010683e-01 0.000000e+00
-1.008183e-01 0.000000e+00
-1.005683e-01 0.000000e+00
-1.003183e-01 0.000000e+00
-1.000683e-01 0.000000e+00
-9.981829e-02 0.000000e+00
-9.956829e-02 0.000000e+00
-9.931830e-02 0.000000e+00
-9.906829e-02 0.000000e+00
-9.881829e-02 0.000000e+00
-9.856829e-02 0.000000e+00
-9.831829e-02 0.000000e+00
-9.806830e-02 0.000000e+00
-9.781829e-02 0.000000e+00
-9.756829e-02 0.000000e+00
-9.731829e-02 0.000000e+00
-9.706829e-02 0.000000e+00
-9.681829e-02 0.000000e+00
-9.656829e-02 0.000000e+00
-9.631829e-02 0.000000e+00
-9.606829e-02 0.000000e+00
-9.581830e-02 0.000000e+00
-9.556829e-02 0.000000e+00
-9.531829e-02 0.000000e+00
-9.506829e-02 0.000000e+00
-9.481829e-02 0.000000e+00
-9.456830e-02 0.000000e+00
-9.431829e-02 0.000000e+00
-9.406829e-02 0.000000e+00
-9.381829e-02 0.000000e+00
-9.356830e-02 0.000000e+00
-9.331829e-02 0.000000e+00
-9.306829e-02 0.000000e+00
-9.281829e-02 0.000000e+00
-9.256829e-02 0.000000e+00
-9.231830e-02 0.000000e+00
-9.206829e-02 0.000000e+00
-9.181829e-02 0.000000e+00
-9.156829e-02 0.000000e+00
-9.131829e-02 0.000000e+00
-9.106829e-02 0.000000e+00
-9.081829e-02 0.000000e+00
-9.056829e-02 0.000000e+00
-9.031829e-02 0.000000e+00
-9.006830e-02 0.000000e+00
-8.981829e-02 0.000000e+00
-8.956829e-02 0.000000e+00
-8.931829e-02 0.000000e+00
-8.906829e-02 0.000000e+00
-8.881830e-02 0.000000e+00
-8.856829e-02 0.000000e+00
-8.831829e-02 0.000000e+00
-8.806829e-02 0.000000e+00
-8.781829e-02 0.000000e+00
-8.756829e-02 0.000000e+00
-8.731829e-02 0.000000e+00
-8.706829e-02 0.000000e+00
-8.681829e-02 0.000000e+00
-8.656830e-02 0.000000e+00
-8.631829e-02 0.000000e+00
-8.606829e-02 0.000000e+00
-8.581829e-02 0.000000e+00
-8.556829e-02 0.000000e+00
-8.531829e-02 0.000000e+00
-8.506829e-02 0.000000e+00
-8.481829e-02 0.000000e+00
-8.456829e-02 0.000000e+00
-8.431830e-02 0.000000e+00
-8.406829e-02 0.000000e+00
-8.381829e-02 0.000000e+00
-8.356829e-02 0.000000e+00
-8.331829e-02 0.000000e+00
-8.306830e-02 0.000000e+00
-8.281829e-02 0.000000e+00
-8.256829e-02 0.000000e+00
-8.231829e-02 0.000000e+00
-8.206829e-02 0.000000e+00
-8.181829e-02 0.000000e+00
-8.156829e-02 0.000000e+00
-8.131829e-02 0.000000e+00
-8.106829e-02 0.000000e+00
-8.081830e-02 0.000000e+00
-8.056829e-02 0.000000e+00
-8.031829e-02 0.000000e+00
-8.006829e-02 0.000000e+00
-7.981829e-02 0.000000e+00
-7.956829e-02 0.000000e+00
-7.931829e-02 0.000000e+00
-7.906829e-02 0.000000e+00
-7.881829e-02 0.000000e+00
-7.856829e-02 0.000000e+00
-7.831829e-02 0.000000e+00
-7.806829e-02 0.000000e+00
-7.781829e-02 0.000000e+00
-7.756829e-02 0.000000e+00
-7.731830e-02 0.000000e+00
-7.706829e-02 0.000000e+00
-7.681829e-02 0.000000e+00
-7.656829e-02 0.000000e+00
-7.631829e-02 0.000000e+00
-7.606829e-02 0.000000e+00
-7.581829e-02 -2.802597e-45
-7.556829e-02 -4.203895e-45
-7.531829e-02 -2.802597e-45
-7.506829e-02 -1.401298e-45
-7.481829e-02 0.000000e+00
-7.456829e-02 7.006492e-45
-7.431829e-02 1.261169e-44
-7.406829e-02 1.681558e-44
-7.381829e-02 2.522337e-44
-7.356829e-02 2.101948e-44
-7.331829e-02 7.006492e-45
-7.306829e-02 -2.802597e-44
-7.281829e-02 -7.286752e-44
-7.256829e-02 -1.093013e-43
-7.231829e-02 -1.191104e-43
-7.206829e-02 -7.987401e-44
-7.181829e-02 3.222986e-44
-7.156829e-02 2.101948e-43
-7.131829e-02 4.231921e-43
-7.106829e-02 5.801376e-43
-7.081829e-02 5.703285e-43
-7.056829e-02 2.620428e-43
-7.031829e-02 -4.007714e-43
-7.006829e-02 -1.362062e-42
-6.981829e-02 -2.365392e-42
-6.956829e-02 -2.951135e-42
-6.931829e-02 -2.508324e-42
-6.906829e-02 -5.226843e-43
-6.881829e-02 3.158527e-42
-6.856829e-02 7.960777e-42
-6.831829e-02 1.234684e-41
-6.806829e-02 1.390508e-41
-6.781829e-02 9.893167e-42
-6.756829e-02 -1.674552e-42
-6.731829e-02 -2.052202e-41
-6.706829e-02 -4.271298e-41
-6.681829e-02 -5.999519e-41
-6.656829e-02 -6.080935e-41
-6.631829e-02 -3.356670e-41
-6.606829e-02 2.789705e-41
-6.581829e-02 1.177679e-40
-6.556829e-02 2.130114e-40
-6.531829e-02 2.727796e-40
-6.506829e-02 2.458186e-40
-6.481829e-02 8.758816e-41
-6.456829e-02 -2.146215e-40
-6.431829e-02 -6.151686e-40
-6.406829e-02 -9.936593e-40
-6.381829e-02 -1.162573e-39
-6.356829e-02 -9.108804e-40
-6.331829e-02 -8.593042e-41
-6.306829e-02 1.299978e-39
-6.281829e-02 2.971938e-39
-6.256829e-02 4.354054e-39
-6.231829e-02 4.644301e-39
-6.206829e-02 3.038133e-39
-6.181829e-02 -9.102625e-40
-6.156829e-02 -6.869075e-39
-6.131829e-02 -1.340708e-38
-6.106829e-02 -1.797216e-38
-6.081829e-02 -1.735898e-38
-6.056829e-02 -8.746332e-39
-6.031829e-02 8.823499e-39
-6.006829e-02 3.292383e-38
-5.981829e-02 5.683341e-38
-5.956829e-02 6.999563e-38
-5.931829e-02 6.043395e-38
-5.906829e-02 1.918133e-38
-5.881829e-02 -5.407765e-38
-5.856829e-02 -1.459409e-37
-5.831829e-02 -2.273456e-37
-5.806829e-02 -2.573507e-37
-5.781829e-02 -1.941978e-37
-5.756829e-02 -1.288233e-38
-5.731829e-02 2.747888e-37
-5.706829e-02 6.049738e-37
-5.681829e-02 8.606265e-37
-5.656829e-02 8.925330e-37
-5.631829e-02 5.655300e-37
-5.606829e-02 -1.763678e-37
-5.581829e-02 -1.243688e-36
-5.556829e-02 -2.361758e-36
-5.531829e-02 -3.088520e-36
-5.506829e-02 -2.912640e-36
-5.481829e-02 -1.432430e-36
-5.456829e-02 1.418076e-36
-5.431829e-02 5.166918e-36
-5.406829e-02 8.723472e-36
-5.381829e-02 1.051557e-35
-5.356829e-02 8.898094e-36
-5.331829e-02 2.799989e-36
-5.306829e-02 -7.540617e-36
-5.281829e-02 -2.001550e-35
-5.256829e-02 -3.058059e-35
-5.231829e-02 -3.395905e-35
-5.206829e-02 -2.520259e-35
-5.181829e-02 -1.886847e-36
-5.156829e-02 3.365546e-35
-5.131829e-02 7.296653e-35
-5.106829e-02 1.019440e-34
-5.081829e-02 1.038646e-34
-5.056829e-02 6.493234e-35
-5.031829e-02 -1.871539e-35
-5.006829e-02 -1.347130e-34
-4.981829e-02 -2.517904e-34
-4.956829e-02 -3.235068e-34
-4.931829e-02 -2.998800e-34
-4.906829e-02 -1.458679e-34
-4.881829e-02 1.376075e-34
-4.856829e-02 4.974283e-34
-4.831829e-02 8.255958e-34
-4.806829e-02 9.773616e-34
-4.781829e-02 8.123406e-34
-4.756829e-02 2.524727e-34
-4.731829e-02 -6.588337e-34
-4.706829e-02 -1.719547e-33
-4.681829e-02 -2.578503e-33
-4.656829e-02 -2.808428e-33
-4.631829e-02 -2.041434e-33
-4.606829e-02 -1.404566e-34
-4.581829e-02 2.645797e-33
-4.556829e-02 5.613054e-33
-4.531829e-02 7.681363e-33
-4.506829e-02 7.657510e-33
-4.481829e-02 4.654485e-33
-4.456829e-02 -1.430511e-33
-4.431829e-02 -9.543019e-33
-4.406829e-02 -1.739439e-32
-4.381829e-02 -2.183568e-32
-4.356829e-02 -1.972430e-32
-4.331829e-02 -9.149110e-33
-4.306829e-02 9.316941e-33
-4.281829e-02 3.181479e-32
-4.256829e-02 5.134581e-32
-4.231829e-02 5.919758e-32
-4.206829e-02 4.761428e-32
-4.181829e-02 1.317706e-32
-4.156829e-02 -4.013132e-32
-4.131829e-02 -9.949329e-32
-4.106829e-02 -1.446605e-31
-4.081829e-02 -1.527807e-31
-4.056829e-02 -1.061344e-31
-4.031829e-02 -9.440847e-34
-4.006829e-02 1.457205e-31
-3.981829e-02 2.943419e-31
-3.956829e-02 3.893346e-31
-3.931829e-02 3.740391e-31
-3.906829e-02 2.118956e-31
-3.881829e-02 -9.195151e-32
-3.856829e-02 -4.767224e-31
-3.831829e-02 -8.279807e-31
-3.806829e-02 -1.000786e-30
-3.781829e-02 -8.631480e-31
-3.756829e-02 -3.508297e-31
-3.731829e-02 4.831277e-31
-3.706829e-02 1.444959e-30
-3.681829e-02 2.221341e-30
-3.656829e-02 2.453564e-30
-3.631829e-02 1.856009e-30
-3.606829e-02 3.502209e-31
-3.581829e-02 -1.830495e-30
-3.556829e-02 -4.116092e-30
-3.531829e-02 -5.692595e-30
-3.506829e-02 -5.719807e-30
-3.481829e-02 -3.636536e-30
-3.456829e-02 5.305176e-31
-3.431829e-02 5.969084e-30
-3.406829e-02 1.110830e-29
-3.381829e-02 1.393900e-29
-3.356829e-02 1.260967e-29
-3.331829e-02 6.170527e-30
-3.306829e-02 -4.761423e-30
-3.281829e-02 -1.769239e-29
-3.256829e-02 -2.853464e-29
-3.231829e-02 -3.257923e-29
-3.206829e-02 -2.603051e-29
-3.181829e-02 -7.721246e-30
-3.156829e-02 1.956978e-29
-3.131829e-02 4.882112e-29
-3.106829e-02 6.994526e-29
-3.081829e-02 7.249245e-29
-3.056829e-02 4.938553e-29
-3.031829e-02 6.412815e-31
-3.006829e-02 -6.430435e-29
-2.981829e-02 -1.269862e-28
-2.956829e-02 -1.637572e-28
-2.931829e-02 -1.527949e-28
-2.906829e-02 -8.270346e-29
-2.881829e-02 3.994876e-29
-2.856829e-02 1.872780e-28
-2.831829e-02 3.134939e-28
-2.806829e-02 3.659656e-28
-2.781828e-02 3.023071e-28
-2.756829e-02 1.091016e-28
-2.731829e-02 -1.840982e-28
-2.706829e-02 -5.021113e-28
-2.681829e-02 -7.373290e-28
-2.656829e-02 -7.788689e-28
-2.631829e-02 -5.519479e-28
-2.606829e-02 -5.621339e-29
-2.581829e-02 6.113012e-28
-2.556829e-02 1.261694e-27
-2.531829e-02 1.654856e-27
-2.506829e-02 1.571095e-27
-2.481829e-02 8.969915e-28
-2.456829e-02 -3.015431e-28
-2.431829e-02 -1.749432e-27
-2.406829e-02 -2.999606e-27
-2.381829e-02 -3.543633e-27
-2.356829e-02 -2.977357e-27
-2.331829e-02 -1.177667e-27
-2.306829e-02 1.570516e-27
-2.281829e-02 4.557668e-27
-2.256829e-02 6.781773e-27
-2.231829e-02 7.224517e-27
-2.206829e-02 5.213329e-27
-2.181829e-02 7.630579e-28
-2.156829e-02 -5.232093e-27
-2.131829e-02 -1.106864e-26
-2.106829e-02 -1.461532e-26
-2.081829e-02 -1.395708e-26
-2.056829e-02 -8.143269e-27
-2.031828e-02 2.199783e-27
-2.006829e-02 1.465098e-26
-1.981829e-02 2.536019e-26
-1.956829e-02 3.002881e-26
-1.931829e-02 2.532341e-26
-1.906829e-02 1.033445e-26
-1.881829e-02 -1.243143e-26
-1.856828e-02 -3.701003e-26
-1.831829e-02 -5.516390e-26
-1.806829e-02 -5.870291e-26
-1.781829e-02 -4.241733e-26
-1.756829e-02 -6.739970e-27
-1.731829e-02 4.088919e-26
-1.706829e-02 8.679249e-26
-1.681828e-02 1.142545e-25
-1.656829e-02 1.086580e-25
-1.631829e-02 6.323554e-26
-1.606829e-02 -1.645190e-26
-1.581829e-02 -1.112433e-25
-1.556829e-02 -1.916094e-25
-1.531829e-02 -2.254164e-25
-1.506829e-02 -1.886392e-25
-1.481829e-02 -7.597737e-26
-1.456829e-02 9.242614e-26
-1.431829e-02 2.715608e-25
-1.406829e-02 4.010886e-25
-1.381829e-02 4.227599e-25
-1.356828e-02 3.015315e-25
-1.331829e-02 4.383778e-26
-1.306829e-02 -2.941869e-25
-1.281829e-02 -6.139885e-25
-1.256830e-02 -7.987003e-25
-1.231828e-02 -7.497568e-25
-1.206829e-02 -4.261954e-25
-1.181829e-02 1.266055e-25
-1.156829e-02 7.715179e-25
-1.131828e-02 1.305277e-24
-1.106828e-02 1.513702e-24
-1.081829e-02 1.244319e-24
-1.056829e-02 4.750002e-25
-1.031829e-02 -6.465575e-25
-1.006828e-02 -1.813504e-24
-9.818286e-03 -2.629050e-24
-9.568289e-03 -2.723983e-24
-9.318292e-03 -1.892705e-24
-9.068280e-03 -2.043872e-25
-8.818284e-03 1.955796e-24
-8.568287e-03 3.946490e-24
-8.318290e-03 5.033986e-24
-8.068293e-03 4.627052e-24
-7.818282e-03 2.517137e-24
-7.568285e-03 -9.591975e-25
-7.318288e-03 -4.910627e-24
-7.068291e-03 -8.073288e-24
-6.818295e-03 -9.165555e-24
-6.568283e-03 -7.330988e-24
-6.318286e-03 -2.534846e-24
-6.068289e-03 4.235399e-24
-5.818292e-03 1.108046e-23
-5.568281e-03 1.564297e-23
-5.318284e-03 1.582412e-23
-5.068287e-03 1.057241e-23
-4.818290e-03 4.854420e-25
-4.568294e-03 -1.202732e-23
-4.318282e-03 -2.317616e-23
-4.068285e-03 -2.879961e-23
-3.818288e-03 -2.572668e-23
-3.568292e-03 -1.309697e-23
-3.318280e-03 6.830362e-24
-3.068283e-03 2.877342e-23
-2.818286e-03 4.559534e-23
-2.568290e-03 5.037170e-23
-2.318293e-03 3.883541e-23
-2.068281e-03 1.143121e-23
-1.818284e-03 -2.581824e-23
-1.568288e-03 -6.219254e-23
-1.318291e-03 -8.497095e-23
-1.068294e-03 -8.340109e-23
-8.182824e-04 -5.283512e-23
-5.682856e-04 2.365401e-24
-3.182888e-04 6.842386e-23
-6.829202e-05 1.249127e-22
1.817197e-04 1.503998e-22
4.317164e-04 1.296289e-22
6.817132e-04 6.007291e-23
9.317100e-04 -4.453909e-23
1.181707e-03 -1.555702e-22
1.431718e-03 -2.362471e-22
1.681715e-03 -2.526375e-22
1.931712e-03 -1.859120e-22
2.181709e-03 -4.192188e-23
2.431706e-03 1.457642e-22
2.681717e-03 3.217457e-22
2.931714e-03 4.233889e-22
3.181711e-03 4.008756e-22
3.431708e-03 2.368962e-22
3.681719e-03 -4.086617e-23
3.931716e-03 -3.602070e-22
4.181713e-03 -6.202628e-22
4.431710e-03 -7.203808e-22
4.681706e-03 -5.946605e-22
4.931718e-03 -2.414124e-22
5.181715e-03 2.635875e-22
5.431712e-03 7.777997e-22
5.681708e-03 1.127617e-21
5.931720e-03 1.161685e-21
6.181717e-03 8.070080e-22
6.431714e-03 1.091248e-22
6.681710e-03 -7.605084e-22
6.931707e-03 -1.538799e-21
7.181719e-03 -1.943254e-21
7.431716e-03 -1.764706e-21
7.681713e-03 -9.527330e-22
7.931709e-03 3.369056e-22
8.181706e-03 1.756235e-21
8.431718e-03 2.847334e-21
8.681715e-03 3.177673e-21
8.931711e-03 2.492279e-21
9.181708e-03 8.338742e-22
9.431720e-03 -1.416024e-21
9.681717e-03 -3.603865e-21
9.931713e-03 -4.975947e-21
1.018171e-02 -4.916273e-21
1.043171e-02 -3.181465e-21
1.068172e-02 -5.203559e-23
1.093172e-02 3.666865e-21
1.118171e-02 6.823112e-21
1.143171e-02 8.245675e-21
1.168172e-02 7.138823e-21
1.193172e-02 3.420145e-21
1.218171e-02 -2.122720e-21
1.243171e-02 -7.942687e-21
1.268171e-02 -1.212167e-20
1.293172e-02 -1.295446e-20
1.318172e-02 -9.564568e-21
1.343171e-02 -2.348427e-21
1.368171e-02 6.933383e-21
1.393171e-02 1.551138e-20
1.418172e-02 2.036699e-20
1.443172e-02 1.921025e-20
1.468171e-02 1.138192e-20
1.493171e-02 -1.639162e-21
1.518172e-02 -1.636438e-20
1.543172e-02 -2.812609e-20
1.568171e-02 -3.245095e-20
1.593171e-02 -2.660437e-20
1.618171e-02 -1.081244e-20
1.643172e-02 1.130760e-20
1.668172e-02 3.338946e-20
1.693171e-02 4.799795e-20
1.718171e-02 4.895535e-20
1.743171e-02 3.363713e-20
1.768172e-02 4.455341e-21
1.793171e-02 -3.110779e-20
1.818171e-02 -6.217144e-20
1.843171e-02 -7.755304e-20
1.868172e-02 -6.948326e-20
1.893172e-02 -3.678765e-20
1.918171e-02 1.362717e-20
1.943171e-02 6.776382e-20
1.968171e-02 1.080757e-19
1.993172e-02 1.187848e-19
2.018172e-02 9.147372e-20
2.043171e-02 2.911447e-20
2.068171e-02 -5.308086e-20
2.093172e-02 -1.307864e-19
2.118172e-02 -1.772586e-19
2.143171e-02 -1.719238e-19
2.168171e-02 -1.082730e-19
2.193171e-02 1.704978e-21
2.218172e-02 1.285941e-19
2.243172e-02 2.326430e-19
2.268171e-02 2.754519e-19
2.293171e-02 2.330552e-19
2.318171e-02 1.062250e-19
2.343172e-02 -7.590154e-20
2.368172e-02 -2.611369e-19
2.393171e-02 -3.881134e-19
2.418171e-02 -4.053952e-19
2.443172e-02 -2.902286e-19
2.468172e-02 -6.059154e-20
2.493171e-02 2.245347e-19
2.518171e-02 4.785782e-19
2.543171e-02 6.120847e-19
2.568172e-02 5.621681e-19
2.593172e-02 3.175688e-19
2.618171e-02 -6.973980e-20
2.643171e-02 -4.923246e-19
2.668172e-02 -8.147828e-19
2.693172e-02 -9.147172e-19
2.718171e-02 -7.255319e-19
2.743171e-02 -2.669980e-19
2.768171e-02 3.484495e-19
2.793172e-02 9.394090e-19
2.818172e-02 1.305750e-18
2.843171e-02 1.292537e-18
2.868171e-02 8.483161e-19
2.893171e-02 5.746709e-20
2.918172e-02 -8.679823e-19
2.943172e-02 -1.640290e-18
2.968171e-02 -1.980745e-18
2.993171e-02 -1.713722e-18
3.018172e-02 -8.400500e-19
3.043172e-02 4.377811e-19
3.068171e-02 1.753918e-18
3.093171e-02 2.677318e-18
3.118171e-02 2.845696e-18
3.143172e-02 2.095717e-18
3.168172e-02 5.455796e-19
3.193171e-02 -1.404301e-18
3.218171e-02 -3.164339e-18
3.243172e-02 -4.124853e-18
3.268172e-02 -3.855581e-18
3.293172e-02 -2.273647e-18
3.318171e-02 2.803881e-19
3.343171e-02 3.096484e-18
3.368172e-02 5.279208e-18
3.393172e-02 6.018978e-18
3.418171e-02 4.872241e-18
3.443171e-02 1.958903e-18
3.468171e-02 -2.000005e-18
3.493172e-02 -5.838857e-18
3.518172e-02 -8.272781e-18
3.543171e-02 -8.306850e-18
3.568171e-02 -5.604815e-18
3.593172e-02 -6.895471e-19
3.618172e-02 5.114065e-18
3.643171e-02 1.000950e-17
3.668171e-02 1.225958e-17
3.693171e-02 1.076882e-17
3.718172e-02 5.531272e-18
3.743172e-02 -2.222672e-18
3.768171e-02 -1.026894e-17
3.793171e-02 -1.599329e-17
3.818171e-02 -1.720345e-17
3.843172e-02 -1.290864e-17
3.868172e-02 -3.804282e-18
3.893171e-02 7.737399e-18
3.918171e-02 1.823180e-17
3.943172e-02 2.408733e-17
3.968172e-02 2.277673e-17
3.993171e-02 1.380801e-17
4.018171e-02 -8.510681e-19
4.043171e-02 -1.710601e-17
4.068172e-02 -2.981309e-17
4.093172e-02 -3.434090e-17
4.118171e-02 -2.816172e-17
4.143171e-02 -1.195148e-17
4.168172e-02 1.022757e-17
4.193172e-02 3.183735e-17
4.218172e-02 4.570536e-17
4.243171e-02 4.630633e-17
4.268171e-02 3.178713e-17
4.293172e-02 5.034624e-18
4.318172e-02 -2.668473e-17
4.343171e-02 -5.357202e-17
4.368171e-02 -6.620560e-17
4.393171e-02 -5.868614e-17
4.418172e-02 -3.100895e-17
4.443172e-02 1.021149e-17
4.468171e-02 5.310654e-17
4.493171e-02 8.381250e-17
4.518172e-02 9.078384e-17
4.543172e-02 6.886551e-17
4.568172e-02 2.175897e-17
4.593171e-02 -3.812632e-17
4.618171e-02 -9.270062e-17
4.643172e-02 -1.234510e-16
4.668172e-02 -1.174663e-16
4.693171e-02 -7.234140e-17
4.718171e-02 1.786710e-18
4.743172e-02 8.407769e-17
4.768172e-02 1.485586e-16
4.793172e-02 1.720357e-16
4.818171e-02 1.420243e-16
4.843171e-02 6.209481e-17
4.868172e-02 -4.742263e-17
4.893172e-02 -1.541487e-16
4.918171e-02 -2.228635e-16
4.943171e-02 -2.267127e-16
4.968171e-02 -1.569700e-16
4.993172e-02 -2.797897e-17
5.018172e-02 1.248944e-16
5.043171e-02 2.544317e-16
5.068171e-02 3.156626e-16
5.093172e-02 2.808363e-16
5.118172e-02 1.504524e-16
5.143172e-02 -4.370406e-17
5.168171e-02 -2.454293e-16
5.193171e-02 -3.897321e-16
5.218172e-02 -4.230943e-16
5.243172e-02 -3.222512e-16
5.268171e-02 -1.051690e-16
5.293171e-02 1.702414e-16
5.318171e-02 4.206128e-16
5.343172e-02 5.615413e-16
5.368172e-02 5.350400e-16
5.393171e-02 3.313794e-16
5.418171e-02 -2.440610e-18
5.443172e-02 -3.718344e-16
5.468172e-02 -6.603137e-16
5.493172e-02 -7.651212e-16
5.518171e-02 -6.322530e-16
5.543171e-02 -2.793475e-16
5.568172e-02 2.023455e-16
5.593172e-02 6.698110e-16
5.618171e-02 9.693576e-16
5.643171e-02 9.855851e-16
5.668172e-02 6.830926e-16
5.693172e-02 1.265080e-16
5.718172e-02 -5.299599e-16
5.743171e-02 -1.083309e-15
5.768171e-02 -1.342741e-15
5.793172e-02 -1.193094e-15
5.818172e-02 -6.402794e-16
5.843171e-02 1.780014e-16
5.868171e-02 1.023355e-15
5.893171e-02 1.623857e-15
5.918172e-02 1.759089e-15
5.943172e-02 1.337202e-15
5.968171e-02 4.380512e-16
5.993171e-02 -6.951533e-16
6.018172e-02 -1.718243e-15
6.043172e-02 -2.287751e-15
6.068172e-02 -2.172689e-15
6.093171e-02 -1.341122e-15
6.118171e-02 9.294390e-18
6.143172e-02 1.492378e-15
6.168172e-02 2.639981e-15
6.193171e-02 3.045951e-15
6.218171e-02 2.504383e-15
6.243172e-02 1.096562e-15
6.268172e-02 -8.067597e-16
6.293172e-02 -2.637051e-15
6.318171e-02 -3.793065e-15
6.343171e-02 -3.832947e-15
6.368172e-02 -2.633520e-15
6.393172e-02 -4.617626e-16
6.418172e-02 2.073474e-15
6.443171e-02 4.185537e-15
6.468171e-02 5.147910e-15
6.493172e-02 4.535855e-15
6.518172e-02 2.393676e-15
6.543171e-02 -7.339557e-16
6.568171e-02 -3.930001e-15
6.593172e-02 -6.166227e-15
6.618172e-02 -6.625589e-15
6.643172e-02 -4.987231e-15
6.668171e-02 -1.577940e-15
6.693171e-02 2.671589e-15
6.718172e-02 6.470238e-15
6.743172e-02 8.549624e-15
6.768171e-02 8.075987e-15
6.793171e-02 4.960286e-15
6.818172e-02 -4.354598e-17
6.843172e-02 -5.503476e-15
6.868172e-02 -9.708555e-15
6.893171e-02 -1.119466e-14
6.918171e-02 -9.238637e-15
6.943172e-02 -4.157921e-15
6.968172e-02 2.698512e-15
6.993172e-02 9.292891e-15
7.018171e-02 1.349400e-14
7.043171e-02 1.375515e-14
7.068172e-02 9.662678e-15
7.093172e-02 2.166316e-15
7.118171e-02 -6.611214e-15
7.143171e-02 -1.396020e-14
7.168172e-02 -1.741005e-14
7.193172e-02 -1.554842e-14
7.218172e-02 -8.566497e-15
7.243171e-02 1.670140e-15
7.268171e-02 1.208952e-14
7.293172e-02 1.931426e-14
7.318172e-02 2.073933e-14
7.343172e-02 1.545033e-14
7.368171e-02 4.667562e-15
7.393171e-02 -8.471211e-15
7.418172e-02 -1.977762e-14
7.443172e-02 -2.530381e-14
7.468171e-02 -2.267248e-14
7.493171e-02 -1.201347e-14
7.518172e-02 3.838542e-15
7.543172e-02 2.001984e-14
7.568172e-02 3.104952e-14
7.593171e-02 3.258639e-14
7.618171e-02 2.298944e-14
7.643172e-02 4.152623e-15
7.668172e-02 -1.873146e-14
7.693172e-02 -3.850939e-14
7.718171e-02 -4.818464e-14
7.743172e-02 -4.320966e-14
7.768172e-02 -2.323275e-14
7.793172e-02 7.314705e-15
7.818171e-02 4.009291e-14
7.843171e-02 6.505650e-14
7.868172e-02 7.341816e-14
7.893172e-02 6.051430e-14
7.918172e-02 2.766751e-14
7.943171e-02 -1.762172e-14
7.968171e-02 -6.335985e-14
7.993172e-02 -9.625692e-14
8.018172e-02 -1.055779e-13
8.043171e-02 -8.652086e-14
8.068171e-02 -4.206343e-14
8.093172e-02 1.738412e-14
8.118172e-02 7.654932e-14
8.143172e-02 1.194403e-13
8.168171e-02 1.338941e-13
8.193171e-02 1.151762e-13
8.218172e-02 6.751212e-14
8.243172e-02 3.014434e-15
8.268172e-02 -6.173450e-14
8.293171e-02 -1.104525e-13
8.318172e-02 -1.318259e-13
8.343172e-02 -1.226177e-13
8.368172e-02 -8.821999e-14
8.393171e-02 -4.046368e-14
8.418171e-02 6.598182e-15
8.443172e-02 4.151177e-14
8.468172e-02 5.917177e-14
8.493172e-02 6.213598e-14
8.518171e-02 5.893705e-14
8.543171e-02 5.989310e-14
8.568172e-02 7.187467e-14
8.593172e-02 9.401803e-14
8.618172e-02 1.162325e-13
8.643171e-02 1.215321e-13
8.668172e-02 9.192175e-14
8.693172e-02 1.620878e-14
8.718172e-02 -1.028665e-13
8.743171e-02 -2.449829e-13
8.768171e-02 -3.741204e-13
8.793172e-02 -4.464578e-13
8.818172e-02 -4.228011e-13
8.843172e-02 -2.822970e-13
8.868171e-02 -3.321928e-14
8.893172e-02 2.831170e-13
8.918172e-02 5.977167e-13
8.943172e-02 8.284193e-13
8.968171e-02 9.006422e-13
8.993171e-02 7.691641e-13
9.018172e-02 4.347851e-13
9.043172e-02 -4.953925e-14
9.068172e-02 -5.860454e-13
9.093171e-02 -1.052426e-12
9.118171e-02 -1.330705e-12
9.143172e-02 -1.337642e-12
9.168172e-02 -1.048574e-12
9.193172e-02 -5.078389e-13
9.218171e-02 1.778637e-13
9.243172e-02 8.623421e-13
9.268172e-02 1.393758e-12
9.293172e-02 1.651014e-12
9.318171e-02 1.573283e-12
9.343171e-02 1.174937e-12
9.368172e-02 5.418993e-13
9.393172e-02 -1.895685e-13
9.418172e-02 -8.659502e-13
9.443171e-02 -1.352622e-12
9.468171e-02 -1.563647e-12
9.493172e-02 -1.477823e-12
9.518172e-02 -1.137710e-12
9.543172e-02 -6.331784e-13
9.568171e-02 -7.525119e-14
9.593172e-02 4.317198e-13
9.618172e-02 8.117646e-13
9.643172e-02 1.027753e-12
9.668171e-02 1.079494e-12
9.693171e-02 9.924788e-13
9.718172e-02 8.029711e-13
9.743172e-02 5.456785e-13
9.768172e-02 2.483299e-13
9.793171e-02 -6.596758e-14
9.818172e-02 -3.714718e-13
9.843172e-02 -6.330538e-13
9.868172e-02 -8.055570e-13
9.893171e-02 -8.425071e-13
9.918171e-02 -7.131796e-13
9.943172e-02 -4.224778e-13
9.968172e-02 -2.504908e-14
9.993172e-02 3.749581e-13
1.001817e-01 6.435283e-13
1.004317e-01 6.544017e-13
1.006817e-01 3.359173e-13
1.009317e-01 -2.874942e-13
1.011817e-01 -1.075464e-12
1.014317e-01 -1.786080e-12
1.016817e-01 -2.128278e-12
1.019317e-01 -1.843987e-12
1.021817e-01 -8.002143e-13
1.024317e-01 9.360899e-13
1.026817e-01 3.067536e-12
1.029317e-01 5.098675e-12
1.031817e-01 6.433963e-12
1.034317e-01 6.524745e-12
1.036817e-01 5.031419e-12
1.039317e-01 1.957091e-12
1.041817e-01 -2.289369e-12
1.044317e-01 -6.929024e-12
1.046817e-01 -1.095165e-11
1.049317e-01 -1.333404e-11
1.051817e-01 -1.328997e-11
1.054317e-01 -1.048988e-11
1.056817e-01 -5.190638e-12
1.059317e-01 1.766204e-12
1.061817e-01 9.098363e-12
1.064317e-01 1.534314e-11
1.066817e-01 1.917690e-11
1.069317e-01 1.971778e-11
1.071817e-01 1.673668e-11
1.074317e-01 1.072169e-11
1.076817e-01 2.777044e-12
1.079317e-01 -5.621017e-12
1.081817e-01 -1.295192e-11
1.084317e-01 -1.798124e-11
1.086817e-01 -2.001213e-11
1.089317e-01 -1.899740e-11
1.091817e-01 -1.548857e-11
1.094317e-01 -1.044173e-11
1.096817e-01 -4.937704e-12
1.099317e-01 1.046269e-13
1.101817e-01 4.142900e-12
1.104317e-01 7.096793e-12
1.106817e-01 9.284713e-12
1.109317e-01 1.123444e-11
1.111817e-01 1.342606e-11
1.114317e-01 1.604499e-11
1.116817e-01 1.882102e-11
1.119317e-01 2.100631e-11
1.121817e-01 2.150897e-11
1.124317e-01 1.915757e-11
1.126817e-01 1.303739e-11
1.129317e-01 2.819354e-12
1.131817e-01 -1.099835e-11
1.134317e-01 -2.699913e-11
1.136817e-01 -4.294066e-11
1.139317e-01 -5.602978e-11
1.141817e-01 -6.334465e-11
1.144317e-01 -6.234348e-11
1.146817e-01 -5.138403e-11
1.149317e-01 -3.017201e-11
1.151817e-01 -6.074182e-14
1.154317e-01 3.586482e-11
1.156817e-01 7.296762e-11
1.159317e-01 1.055219e-10
1.161817e-01 1.274442e-10
1.164317e-01 1.332291e-10
1.166817e-01 1.189777e-10
1.169317e-01 8.335947e-11
1.171817e-01 2.832365e-11
1.174317e-01 -4.062665e-11
1.176817e-01 -1.147364e-10
1.179317e-01 -1.829350e-10
1.181817e-01 -2.333460e-10
1.184317e-01 -2.551814e-10
1.186817e-01 -2.407199e-10
1.189317e-01 -1.870020e-10
1.191817e-01 -9.688551e-11
1.194317e-01 2.080975e-11
1.196817e-01 1.521794e-10
1.199317e-01 2.800420e-10
1.201817e-01 3.863881e-10
1.204317e-01 4.550335e-10
1.206817e-01 4.739825e-10
1.209317e-01 4.370632e-10
1.211817e-01 3.445542e-10
1.214317e-01 2.027587e-10
1.216817e-01 2.271800e-11
1.219317e-01 -1.815389e-10
1.221817e-01 -3.947286e-10
1.224317e-01 -6.015827e-10
1.226817e-01 -7.873812e-10
1.229317e-01 -9.377293e-10
1.231817e-01 -1.037839e-09
1.234317e-01 -1.071792e-09
1.236817e-01 -1.022354e-09
1.239317e-01 -8.718435e-10
1.241817e-01 -6.043264e-10
1.244317e-01 -2.090493e-10
1.246817e-01 3.153356e-10
1.249317e-01 9.565291e-10
1.251817e-01 1.685272e-09
1.254317e-01 2.453854e-09
1.256817e-01 3.197099e-09
1.259317e-01 3.836063e-09
1.261817e-01 4.284137e-09
1.264317e-01 4.454841e-09
1.266817e-01 4.270144e-09
1.269317e-01 3.668096e-09
1.271817e-01 2.608573e-09
1.274317e-01 1.076317e-09
1.276817e-01 -9.191240e-10
1.279317e-01 -3.346401e-09
1.281817e-01 -6.157684e-09
1.284317e-01 -9.295356e-09
1.286817e-01 -1.269898e-08
1.289317e-01 -1.631147e-08
1.291817e-01 -2.008385e-08
1.294317e-01 -2.397787e-08
1.296817e-01 -2.796683e-08
1.299317e-01 -3.203468e-08
1.301817e-01 -3.617397e-08
1.304317e-01 -4.038351e-08
1.306817e-01 -4.466606e-08
1.309317e-01 -4.902684e-08
1.311817e-01 -5.347279e-08
1.314317e-01 -5.801283e-08
1.316817e-01 -6.265851e-08
1.319317e-01 -6.742523e-08
1.321817e-01 -7.233256e-08
1.324317e-01 -7.740447e-08
1.326817e-01 -8.266800e-08
1.329317e-01 -8.815130e-08
1.331817e-01 -9.388072e-08
1.334317e-01 -9.987765e-08
1.336817e-01 -1.061559e-07
1.339317e-01 -1.127201e-07
1.341817e-01 -1.195659e-07
1.344317e-01 -1.266826e-07
1.346817e-01 -1.340564e-07
1.349317e-01 -1.416769e-07
1.351817e-01 -1.495417e-07
1.354317e-01 -1.576616e-07
1.356817e-01 -1.660628e-07
1.359317e-01 -1.747866e-07
1.361817e-01 -1.838852e-07
1.364317e-01 -1.934154e-07
1.366817e-01 -2.034307e-07
1.369317e-01 -2.139727e-07
1.371817e-01 -2.250653e-07
1.374317e-01 -2.367125e-07
1.376817e-01 -2.488996e-07
1.379317e-01 -2.616003e-07
1.381817e-01 -2.747855e-07
1.384317e-01 -2.884348e-07
1.386817e-01 -3.025457e-07
1.389317e-01 -3.171404e-07
1.391817e-01 -3.322675e-07
1.394317e-01 -3.479972e-07
1.396817e-01 -3.644135e-07