-1.388183e-01 0.000000e+00
-1.385683e-01 0.000000e+00
-1.383183e-01 0.000000e+00
-1.380683e-01 0.000000e+00
-1.378183e-01 0.000000e+00
-1.375683e-01 0.000000e+00
-1.373183e-01 0.000000e+00
-1.370683e-01 0.000000e+00
-1.368183e-01 0.000000e+00
-1.365683e-01 0.000000e+00
-1.363183e-01 0.000000e+00
-1.360683e-01 0.000000e+00
-1.358183e-01 0.000000e+00
-1.355683e-01 0.000000e+00
-1.353183e-01 0.000000e+00
-1.350683e-01 0.000000e+00
-1.348183e-01 0.000000e+00
-1.345683e-01 0.000000e+00
-1.343183e-01 0.000000e+00
-1.340683e-01 0.000000e+00
-1.338183e-01 0.000000e+00
-1.335683e-01 0.000000e+00
-1.333183e-01 0.000000e+00
-1.330683e-01 0.000000e+00
-1.328183e-01 0.000000e+00
-1.325683e-01 0.000000e+00
-1.323183e-01 0.000000e+00
-1.320683e-01 0.000000e+00
-1.318183e-01 0.000000e+00
-1.315683e-01 0.000000e+00
-1.313183e-01 0.000000e+00
-1.310683e-01 0.000000e+00
-1.308183e-01 0.000000e+00
-1.305683e-01 0.000000e+00
-1.303183e-01 0.000000e+00
-1.300683e-01 0.000000e+00
-1.298183e-01 0.000000e+00
-1.295683e-01 0.000000e+00
-1.293183e-01 0.000000e+00
-1.290683e-01 0.000000e+00
-1.288183e-01 0.000000e+00
-1.285683e-01 0.000000e+00
-1.283183e-01 0.000000e+00
-1.280683e-01 0.000000e+00
-1.278183e-01 0.000000e+00
-1.275683e-01 0.000000e+00
-1.273183e-01 0.000000e+00
-1.270683e-01 0.000000e+00
-1.268183e-01 0.000000e+00
-1.265683e-01 0.000000e+00
-1.263183e-01 0.000000e+00
-1.260683e-01 0.000000e+00
-1.258183e-01 0.000000e+00
-1.255683e-01 0.000000e+00
-1.253183e-01 0.000000e+00
-1.250683e-01 0.000000e+00
-1.248183e-01 0.000000e+00
-1.245683e-01 0.000000e+00
-1.243183e-01 0.000000e+00
-1.240683e-01 0.000000e+00
-1.238183e-01 0.000000e+00
-1.235683e-01 0.000000e+00
-1.233183e-01 0.000000e+00
-1.230683e-01 0.000000e+00
-1.228183e-01 0.000000e+00
-1.225683e-01 0.000000e+00
-1.223183e-01 0.000000e+00
-1.220683e-01 0.000000e+00
-1.218183e-01 0.000000e+00
-1.215683e-01 0.000000e+00
-1.213183e-01 0.000000e+00
-1.210683e-01 0.000000e+00
-1.208183e-01 0.000000e+00
-1.205683e-01 0.000000e+00
-1.203183e-01 0.000000e+00
-1.200683e-01 0.000000e+00
-1.198183e-01 0.000000e+00
-1.195683e-01 0.000000e+00
-1.193183e-01 0.000000e+00
-1.190683e-01 0.000000e+00
-1.188183e-01 0.000000e+00
-1.185683e-01 0.000000e+00
-1.183183e-01 0.000000e+00
-1.180683e-01 0.000000e+00
-1.178183e-01 0.000000e+00
-1.175683e-01 0.000000e+00
-1.173183e-01 0.000000e+00
-1.170683e-01 0.000000e+00
-1.168183e-01 0.000000e+00
-1.165683e-01 0.000000e+00
-1.163183e-01 0.000000e+00
-1.160683e-01 0.000000e+00
-1.158183e-01 0.000000e+00
-1.155683e-01 0.000000e+00
-1.153183e-01 0.000000e+00
-1.150683e-01 0.000000e+00
-1.148183e-01 0.000000e+00
-1.145683e-01 0.000000e+00
-1.143183e-01 0.000000e+00
-1.140683e-01 0.000000e+00
-1.138183e-01 0.000000e+00
-1.135683e-01 0.000000e+00
-1.133183e-01 0.000000e+00
-1.130683e-01 0.000000e+00
-1.128183e-01 0.000000e+00
-1.125683e-01 0.000000e+00
-1.123183e-01 0.000000e+00
-1.120683e-01 0.000000e+00
-1.118183e-01 0.000000e+00
-1.115683e-01 0.000000e+00
-1.113183e-01 0.000000e+00
-1.110683e-01 0.000000e+00
-1.108183e-01 0.000000e+00
-1.105683e-01 0.000000e+00
-1.103183e-01 0.000000e+00
-1.100683e-01 0.000000e+00
-1.098183e-01 0.000000e+00
-1.095683e-01 0.000000e+00
-1.093183e-01 0.000000e+00
-1.090683e-01 0.000000e+00
-1.088183e-01 0.000000e+00
-1.085683e-01 0.000000e+00
-1.083183e-01 0.000000e+00
-1.080683e-01 0.000000e+00
-1.078183e-01 0.000000e+00
-1.075683e-01 0.000000e+00
-1.073183e-01 0.000000e+00
-1.070683e-01 0.000000e+00
-1.068183e-01 0.000000e+00
-1.065683e-01 0.000000e+00
-1.063183e-01 0.000000e+00
-1.060683e-01 0.000000e+00
-1.058183e-01 0.000000e+00
-1.055683e-01 0.000000e+00
-1.053183e-01 0.000000e+00
-1.050683e-01 0.000000e+00
-1.048183e-01 0.000000e+00
-1.045683e-01 0.000000e+00
-1.043183e-01 0.000000e+00
-1.040683e-01 0.000000e+00
-1.038183e-01 0.000000e+00
-1.035683e-01 0.000000e+00
-1.033183e-01 0.000000e+00
-1.030683e-01 0.000000e+00
-1.028183e-01 0.000000e+00
-1.025683e-01 0.000000e+00
-1.023183e-01 0.000000e+00
-1.020683e-01 0.000000e+00
-1.018183e-01 0.000000e+00
-1.015683e-01 0.000000e+00
-1.013183e-01 0.000000e+00
-1.010683e-01 0.000000e+00
-1.008183e-01 0.000000e+00
-1.005683e-01 0.000000e+00
-1.003183e-01 0.000000e+00
-1.000683e-01 0.000000e+00
-9.981829e-02 0.000000e+00
-9.956829e-02 0.000000e+00
-9.931830e-02 0.000000e+00
-9.906829e-02 0.000000e+00
-9.881829e-02 0.000000e+00
-9.856829e-02 0.000000e+00
-9.831829e-02 0.000000e+00
-9.806830e-02 0.000000e+00
-9.781829e-02 0.000000e+00
-9.756829e-02 0.000000e+00
-9.731829e-02 0.000000e+00
-9.706829e-02 0.000000e+00
-9.681829e-02 0.000000e+00
-9.656829e-02 0.000000e+00
-9.631829e-02 0.000000e+00
-9.606829e-02 0.000000e+00
-9.581830e-02 0.000000e+00
-9.556829e-02 0.000000e+00
-9.531829e-02 0.000000e+00
-9.506829e-02 0.000000e+00
-9.481829e-02 0.000000e+00
-9.456830e-02 0.000000e+00
-9.431829e-02 0.000000e+00
-9.406829e-02 0.000000e+00
-9.381829e-02 0.000000e+00
-9.356830e-02 0.000000e+00
-9.331829e-02 0.000000e+00
-9.306829e-02 0.000000e+00
-9.281829e-02 0.000000e+00
-9.256829e-02 0.000000e+00
-9.231830e-02 0.000000e+00
-9.206829e-02 0.000000e+00
-9.181829e-02 0.000000e+00
-9.156829e-02 0.000000e+00
-9.131829e-02 0.000000e+00
-9.106829e-02 0.000000e+00
-9.081829e-02 0.000000e+00
-9.056829e-02 0.000000e+00
-9.031829e-02 0.000000e+00
-9.006830e-02 0.000000e+00
-8.981829e-02 0.000000e+00
-8.956829e-02 0.000000e+00
-8.931829e-02 0.000000e+00
-8.906829e-02 0.000000e+00
-8.881830e-02 0.000000e+00
-8.856829e-02 0.000000e+00
-8.831829e-02 0.000000e+00
-8.806829e-02 0.000000e+00
-8.781829e-02 0.000000e+00
-8.756829e-02 0.000000e+00
-8.731829e-02 0.000000e+00
-8.706829e-02 0.000000e+00
-8.681829e-02 0.000000e+00
-8.656830e-02 0.000000e+00
-8.631829e-02 0.000000e+00
-8.606829e-02 0.000000e+00
-8.581829e-02 0.000000e+00
-8.556829e-02 0.000000e+00
-8.531829e-02 0.000000e+00
-8.506829e-02 0.000000e+00
-8.481829e-02 0.000000e+00
-8.456829e-02 0.000000e+00
-8.431830e-02 0.000000e+00
-8.406829e-02 0.000000e+00
-8.381829e-02 0.000000e+00
-8.356829e-02 0.000000e+00
-8.331829e-02 0.000000e+00
-8.306830e-02 0.000000e+00
-8.281829e-02 0.000000e+00
-8.256829e-02 0.000000e+00
-8.231829e-02 0.000000e+00
-8.206829e-02 0.000000e+00
-8.181829e-02 0.000000e+00
-8.156829e-02 0.000000e+00
-8.131829e-02 0.000000e+00
-8.106829e-02 0.000000e+00
-8.081830e-02 0.000000e+00
-8.056829e-02 0.000000e+00
-8.031829e-02 0.000000e+00
-8.006829e-02 0.000000e+00
-7.981829e-02 0.000000e+00
-7.956829e-02 0.000000e+00
-7.931829e-02 0.000000e+00
-7.906829e-02 0.000000e+00
-7.881829e-02 0.000000e+00
-7.856829e-02 0.000000e+00
-7.831829e-02 0.000000e+00
-7.806829e-02 0.000000e+00
-7.781829e-02 0.000000e+00
-7.756829e-02 0.000000e+00
-7.731830e-02 0.000000e+00
-7.706829e-02 0.000000e+00
-7.681829e-02 0.000000e+00
-7.656829e-02 0.000000e+00
-7.631829e-02 0.000000e+00
-7.606829e-02 0.000000e+00
-7.581829e-02 0.000000e+00
-7.556829e-02 0.000000e+00
-7.531829e-02 0.000000e+00
-7.506829e-02 0.000000e+00
-7.481829e-02 0.000000e+00
-7.456829e-02 0.000000e+00
-7.431829e-02 0.000000e+00
-7.406829e-02 0.000000e+00
-7.381829e-02 0.000000e+00
-7.356829e-02 0.000000e+00
-7.331829e-02 0.000000e+00
-7.306829e-02 0.000000e+00
-7.281829e-02 0.000000e+00
-7.256829e-02 0.000000e+00
-7.231829e-02 0.000000e+00
-7.206829e-02 0.000000e+00
-7.181829e-02 0.000000e+00
-7.156829e-02 0.000000e+00
-7.131829e-02 0.000000e+00
-7.106829e-02 0.000000e+00
-7.081829e-02 0.000000e+00
-7.056829e-02 0.000000e+00
-7.031829e-02 0.000000e+00
-7.006829e-02 0.000000e+00
-6.981829e-02 0.000000e+00
-6.956829e-02 0.000000e+00
-6.931829e-02 0.000000e+00
-6.906829e-02 0.000000e+00
-6.881829e-02 0.000000e+00
-6.856829e-02 0.000000e+00
-6.831829e-02 0.000000e+00
-6.806829e-02 0.000000e+00
-6.781829e-02 0.000000e+00
-6.756829e-02 0.000000e+00
-6.731829e-02 0.000000e+00
-6.706829e-02 0.000000e+00
-6.681829e-02 0.000000e+00
-6.656829e-02 0.000000e+00
-6.631829e-02 0.000000e+00
-6.606829e-02 0.000000e+00
-6.581829e-02 0.000000e+00
-6.556829e-02 0.000000e+00
-6.531829e-02 0.000000e+00
-6.506829e-02 0.000000e+00
-6.481829e-02 0.000000e+00
-6.456829e-02 0.000000e+00
-6.431829e-02 0.000000e+00
-6.406829e-02 0.000000e+00
-6.381829e-02 0.000000e+00
-6.356829e-02 0.000000e+00
-6.331829e-02 0.000000e+00
-6.306829e-02 0.000000e+00
-6.281829e-02 0.000000e+00
-6.256829e-02 0.000000e+00
-6.231829e-02 0.000000e+00
-6.206829e-02 0.000000e+00
-6.181829e-02 0.000000e+00
-6.156829e-02 0.000000e+00
-6.131829e-02 0.000000e+00
-6.106829e-02 0.000000e+00
-6.081829e-02 0.000000e+00
-6.056829e-02 0.000000e+00
-6.031829e-02 0.000000e+00
-6.006829e-02 0.000000e+00
-5.981829e-02 0.000000e+00
-5.956829e-02 0.000000e+00
-5.931829e-02 0.000000e+00
-5.906829e-02 0.000000e+00
-5.881829e-02 0.000000e+00
-5.856829e-02 0.000000e+00
-5.831829e-02 0.000000e+00
-5.806829e-02 0.000000e+00
-5.781829e-02 0.000000e+00
-5.756829e-02 0.000000e+00
-5.731829e-02 0.000000e+00
-5.706829e-02 0.000000e+00
-5.681829e-02 0.000000e+00
-5.656829e-02 0.000000e+00
-5.631829e-02 0.000000e+00
-5.606829e-02 0.000000e+00
-5.581829e-02 0.000000e+00
-5.556829e-02 0.000000e+00
-5.531829e-02 0.000000e+00
-5.506829e-02 0.000000e+00
-5.481829e-02 0.000000e+00
-5.456829e-02 0.000000e+00
-5.431829e-02 0.000000e+00
-5.406829e-02 0.000000e+00
-5.381829e-02 0.000000e+00
-5.356829e-02 0.000000e+00
-5.331829e-02 0.000000e+00
-5.306829e-02 0.000000e+00
-5.281829e-02 0.000000e+00
-5.256829e-02 0.000000e+00
-5.231829e-02 0.000000e+00
-5.206829e-02 0.000000e+00
-5.181829e-02 0.000000e+00
-5.156829e-02 0.000000e+00
-5.131829e-02 0.000000e+00
-5.106829e-02 0.000000e+00
-5.081829e-02 0.000000e+00
-5.056829e-02 0.000000e+00
-5.031829e-02 0.000000e+00
-5.006829e-02 0.000000e+00
-4.981829e-02 0.000000e+00
-4.956829e-02 0.000000e+00
-4.931829e-02 0.000000e+00
-4.906829e-02 0.000000e+00
-4.881829e-02 0.000000e+00
-4.856829e-02 0.000000e+00
-4.831829e-02 0.000000e+00
-4.806829e-02 0.000000e+00
-4.781829e-02 0.000000e+00
-4.756829e-02 0.000000e+00
-4.731829e-02 0.000000e+00
-4.706829e-02 0.000000e+00
-4.681829e-02 0.000000e+00
-4.656829e-02 0.000000e+00
-4.631829e-02 0.000000e+00
-4.606829e-02 0.000000e+00
-4.581829e-02 0.000000e+00
-4.556829e-02 0.000000e+00
-4.531829e-02 0.000000e+00
-4.506829e-02 0.000000e+00
-4.481829e-02 0.000000e+00
-4.456829e-02 0.000000e+00
-4.431829e-02 0.000000e+00
-4.406829e-02 0.000000e+00
-4.381829e-02 0.000000e+00
-4.356829e-02 0.000000e+00
-4.331829e-02 0.000000e+00
-4.306829e-02 0.000000e+00
-4.281829e-02 0.000000e+00
-4.256829e-02 0.000000e+00
-4.231829e-02 0.000000e+00
-4.206829e-02 0.000000e+00
-4.181829e-02 0.000000e+00
-4.156829e-02 0.000000e+00
-4.131829e-02 0.000000e+00
-4.106829e-02 0.000000e+00
-4.081829e-02 0.000000e+00
-4.056829e-02 0.000000e+00
-4.031829e-02 0.000000e+00
-4.006829e-02 0.000000e+00
-3.981829e-02 0.000000e+00
-3.956829e-02 0.000000e+00
-3.931829e-02 0.000000e+00
-3.906829e-02 0.000000e+00
-3.881829e-02 0.000000e+00
-3.856829e-02 0.000000e+00
-3.831829e-02 0.000000e+00
-3.806829e-02 0.000000e+00
-3.781829e-02 0.000000e+00
-3.756829e-02 0.000000e+00
-3.731829e-02 0.000000e+00
-3.706829e-02 0.000000e+00
-3.681829e-02 0.000000e+00
-3.656829e-02 0.000000e+00
-3.631829e-02 0.000000e+00
-3.606829e-02 0.000000e+00
-3.581829e-02 0.000000e+00
-3.556829e-02 0.000000e+00
-3.531829e-02 0.000000e+00
-3.506829e-02 0.000000e+00
-3.481829e-02 0.000000e+00
-3.456829e-02 0.000000e+00
-3.431829e-02 0.000000e+00
-3.406829e-02 0.000000e+00
-3.381829e-02 0.000000e+00
-3.356829e-02 0.000000e+00
-3.331829e-02 0.000000e+00
-3.306829e-02 0.000000e+00
-3.281829e-02 0.000000e+00
-3.256829e-02 0.000000e+00
-3.231829e-02 0.000000e+00
-3.206829e-02 0.000000e+00
-3.181829e-02 0.000000e+00
-3.156829e-02 0.000000e+00
-3.131829e-02 0.000000e+00
-3.106829e-02 0.000000e+00
-3.081829e-02 0.000000e+00
-3.056829e-02 0.000000e+00
-3.031829e-02 0.000000e+00
-3.006829e-02 0.000000e+00
-2.981829e-02 0.000000e+00
-2.956829e-02 0.000000e+00
-2.931829e-02 0.000000e+00
-2.906829e-02 0.000000e+00
-2.881829e-02 0.000000e+00
-2.856829e-02 0.000000e+00
-2.831829e-02 0.000000e+00
-2.806829e-02 0.000000e+00
-2.781828e-02 0.000000e+00
-2.756829e-02 0.000000e+00
-2.731829e-02 0.000000e+00
-2.706829e-02 0.000000e+00
-2.681829e-02 0.000000e+00
-2.656829e-02 0.000000e+00
-2.631829e-02 0.000000e+00
-2.606829e-02 0.000000e+00
-2.581829e-02 0.000000e+00
-2.556829e-02 0.000000e+00
-2.531829e-02 0.000000e+00
-2.506829e-02 0.000000e+00
-2.481829e-02 0.000000e+00
-2.456829e-02 0.000000e+00
-2.431829e-02 0.000000e+00
-2.406829e-02 0.000000e+00
-2.381829e-02 0.000000e+00
-2.356829e-02 0.000000e+00
-2.331829e-02 0.000000e+00
-2.306829e-02 0.000000e+00
-2.281829e-02 0.000000e+00
-2.256829e-02 0.000000e+00
-2.231829e-02 0.000000e+00
-2.206829e-02 0.000000e+00
-2.181829e-02 0.000000e+00
-2.156829e-02 0.000000e+00
-2.131829e-02 0.000000e+00
-2.106829e-02 0.000000e+00
-2.081829e-02 0.000000e+00
-2.056829e-02 0.000000e+00
-2.031828e-02 0.000000e+00
-2.006829e-02 0.000000e+00
-1.981829e-02 0.000000e+00
-1.956829e-02 0.000000e+00
-1.931829e-02 0.000000e+00
-1.906829e-02 0.000000e+00
-1.881829e-02 0.000000e+00
-1.856828e-02 0.000000e+00
-1.831829e-02 0.000000e+00
-1.806829e-02 0.000000e+00
-1.781829e-02 0.000000e+00
-1.756829e-02 0.000000e+00
-1.731829e-02 0.000000e+00
-1.706829e-02 0.000000e+00
-1.681828e-02 0.000000e+00
-1.656829e-02 0.000000e+00
-1.631829e-02 0.000000e+00
-1.606829e-02 0.000000e+00
-1.581829e-02 0.000000e+00
-1.556829e-02 0.000000e+00
-1.531829e-02 0.000000e+00
-1.506829e-02 0.000000e+00
-1.481829e-02 0.000000e+00
-1.456829e-02 0.000000e+00
-1.431829e-02 0.000000e+00
-1.406829e-02 0.000000e+00
-1.381829e-02 0.000000e+00
-1.356828e-02 0.000000e+00
-1.331829e-02 0.000000e+00
-1.306829e-02 0.000000e+00
-1.281829e-02 0.000000e+00
-1.256830e-02 0.000000e+00
-1.231828e-02 0.000000e+00
-1.206829e-02 0.000000e+00
-1.181829e-02 0.000000e+00
-1.156829e-02 0.000000e+00
-1.131828e-02 0.000000e+00
-1.106828e-02 0.000000e+00
-1.081829e-02 0.000000e+00
-1.056829e-02 0.000000e+00
-1.031829e-02 0.000000e+00
-1.006828e-02 0.000000e+00
-9.818286e-03 0.000000e+00
-9.568289e-03 0.000000e+00
-9.318292e-03 0.000000e+00
-9.068280e-03 0.000000e+00
-8.818284e-03 0.000000e+00
-8.568287e-03 0.000000e+00
-8.318290e-03 0.000000e+00
-8.068293e-03 0.000000e+00
-7.818282e-03 0.000000e+00
-7.568285e-03 0.000000e+00
-7.318288e-03 0.000000e+00
-7.068291e-03 0.000000e+00
-6.818295e-03 0.000000e+00
-6.568283e-03 0.000000e+00
-6.318286e-03 0.000000e+00
-6.068289e-03 0.000000e+00
-5.818292e-03 0.000000e+00
-5.568281e-03 0.000000e+00
-5.318284e-03 0.000000e+00
-5.068287e-03 0.000000e+00
-4.818290e-03 0.000000e+00
-4.568294e-03 0.000000e+00
-4.318282e-03 0.000000e+00
-4.068285e-03 0.000000e+00
-3.818288e-03 0.000000e+00
-3.568292e-03 0.000000e+00
-3.318280e-03 0.000000e+00
-3.068283e-03 0.000000e+00
-2.818286e-03 0.000000e+00
-2.568290e-03 0.000000e+00
-2.318293e-03 0.000000e+00
-2.068281e-03 0.000000e+00
-1.818284e-03 0.000000e+00
-1.568288e-03 0.000000e+00
-1.318291e-03 0.000000e+00
-1.068294e-03 0.000000e+00
-8.182824e-04 0.000000e+00
-5.682856e-04 0.000000e+00
-3.182888e-04 0.000000e+00
-6.829202e-05 0.000000e+00
1.817197e-04 0.000000e+00
4.317164e-04 0.000000e+00
6.817132e-04 0.000000e+00
9.317100e-04 0.000000e+00
1.181707e-03 0.000000e+00
1.431718e-03 0.000000e+00
1.681715e-03 0.000000e+00
1.931712e-03 0.000000e+00
2.181709e-03 0.000000e+00
2.431706e-03 0.000000e+00
2.681717e-03 0.000000e+00
2.931714e-03 0.000000e+00
3.181711e-03 0.000000e+00
3.431708e-03 0.000000e+00
3.681719e-03 0.000000e+00
3.931716e-03 0.000000e+00
4.181713e-03 0.000000e+00
4.431710e-03 0.000000e+00
4.681706e-03 0.000000e+00
4.931718e-03 0.000000e+00
5.181715e-03 0.000000e+00
5.431712e-03 0.000000e+00
5.681708e-03 0.000000e+00
5.931720e-03 0.000000e+00
6.181717e-03 0.000000e+00
6.431714e-03 0.000000e+00
6.681710e-03 0.000000e+00
6.931707e-03 0.000000e+00
7.181719e-03 0.000000e+00
7.431716e-03 0.000000e+00
7.681713e-03 0.000000e+00
7.931709e-03 0.000000e+00
8.181706e-03 0.000000e+00
8.431718e-03 0.000000e+00
8.681715e-03 0.000000e+00
8.931711e-03 0.000000e+00
9.181708e-03 0.000000e+00
9.431720e-03 0.000000e+00
9.681717e-03 0.000000e+00
9.931713e-03 0.000000e+00
1.018171e-02 0.000000e+00
1.043171e-02 0.000000e+00
1.068172e-02 0.000000e+00
1.093172e-02 0.000000e+00
1.118171e-02 0.000000e+00
1.143171e-02 0.000000e+00
1.168172e-02 0.000000e+00
1.193172e-02 0.000000e+00
1.218171e-02 0.000000e+00
1.243171e-02 0.000000e+00
1.268171e-02 0.000000e+00
1.293172e-02 0.000000e+00
1.318172e-02 0.000000e+00
1.343171e-02 0.000000e+00
1.368171e-02 0.000000e+00
1.393171e-02 0.000000e+00
1.418172e-02 0.000000e+00
1.443172e-02 0.000000e+00
1.468171e-02 0.000000e+00
1.493171e-02 0.000000e+00
1.518172e-02 0.000000e+00
1.543172e-02 0.000000e+00
1.568171e-02 0.000000e+00
1.593171e-02 0.000000e+00
1.618171e-02 0.000000e+00
1.643172e-02 0.000000e+00
1.668172e-02 0.000000e+00
1.693171e-02 0.000000e+00
1.718171e-02 0.000000e+00
1.743171e-02 0.000000e+00
1.768172e-02 0.000000e+00
1.793171e-02 0.000000e+00
1.818171e-02 0.000000e+00
1.843171e-02 0.000000e+00
1.868172e-02 0.000000e+00
1.893172e-02 0.000000e+00
1.918171e-02 0.000000e+00
1.943171e-02 0.000000e+00
1.968171e-02 0.000000e+00
1.993172e-02 0.000000e+00
2.018172e-02 0.000000e+00
2.043171e-02 0.000000e+00
2.068171e-02 0.000000e+00
2.093172e-02 0.000000e+00
2.118172e-02 0.000000e+00
2.143171e-02 0.000000e+00
2.168171e-02 0.000000e+00
2.193171e-02 0.000000e+00
2.218172e-02 0.000000e+00
2.243172e-02 0.000000e+00
2.268171e-02 0.000000e+00
2.293171e-02 0.000000e+00
2.318171e-02 0.000000e+00
2.343172e-02 0.000000e+00
2.368172e-02 0.000000e+00
2.393171e-02 0.000000e+00
2.418171e-02 0.000000e+00
2.443172e-02 0.000000e+00
2.468172e-02 0.000000e+00
2.493171e-02 0.000000e+00
2.518171e-02 0.000000e+00
2.543171e-02 0.000000e+00
2.568172e-02 0.000000e+00
2.593172e-02 0.000000e+00
2.618171e-02 0.000000e+00
2.643171e-02 0.000000e+00
2.668172e-02 0.000000e+00
2.693172e-02 0.000000e+00
2.718171e-02 0.000000e+00
2.743171e-02 0.000000e+00
2.768171e-02 0.000000e+00
2.793172e-02 0.000000e+00
2.818172e-02 0.000000e+00
2.843171e-02 0.000000e+00
2.868171e-02 0.000000e+00
2.893171e-02 0.000000e+00
2.918172e-02 0.000000e+00
2.943172e-02 0.000000e+00
2.968171e-02 0.000000e+00
2.993171e-02 0.000000e+00
3.018172e-02 0.000000e+00
3.043172e-02 0.000000e+00
3.068171e-02 0.000000e+00
3.093171e-02 0.000000e+00
3.118171e-02 0.000000e+00
3.143172e-02 0.000000e+00
3.168172e-02 0.000000e+00
3.193171e-02 0.000000e+00
3.218171e-02 0.000000e+00
3.243172e-02 0.000000e+00
3.268172e-02 0.000000e+00
3.293172e-02 0.000000e+00
3.318171e-02 0.000000e+00
3.343171e-02 0.000000e+00
3.368172e-02 0.000000e+00
3.393172e-02 0.000000e+00
3.418171e-02 0.000000e+00
3.443171e-02 0.000000e+00
3.468171e-02 0.000000e+00
3.493172e-02 0.000000e+00
3.518172e-02 0.000000e+00
3.543171e-02 0.000000e+00
3.568171e-02 0.000000e+00
3.593172e-02 0.000000e+00
3.618172e-02 0.000000e+00
3.643171e-02 0.000000e+00
3.668171e-02 0.000000e+00
3.693171e-02 0.000000e+00
3.718172e-02 0.000000e+00
3.743172e-02 0.000000e+00
3.768171e-02 0.000000e+00
3.793171e-02 0.000000e+00
3.818171e-02 0.000000e+00
3.843172e-02 0.000000e+00
3.868172e-02 0.000000e+00
3.893171e-02 0.000000e+00
3.918171e-02 0.000000e+00
3.943172e-02 0.000000e+00
3.968172e-02 0.000000e+00
3.993171e-02 0.000000e+00
4.018171e-02 0.000000e+00
4.043171e-02 0.000000e+00
4.068172e-02 0.000000e+00
4.093172e-02 0.000000e+00
4.118171e-02 0.000000e+00
4.143171e-02 0.000000e+00
4.168172e-02 0.000000e+00
4.193172e-02 0.000000e+00
4.218172e-02 0.000000e+00
4.243171e-02 0.000000e+00
4.268171e-02 0.000000e+00
4.293172e-02 0.000000e+00
4.318172e-02 0.000000e+00
4.343171e-02 0.000000e+00
4.368171e-02 0.000000e+00
4.393171e-02 0.000000e+00
4.418172e-02 0.000000e+00
4.443172e-02 0.000000e+00
4.468171e-02 0.000000e+00
4.493171e-02 0.000000e+00
4.518172e-02 0.000000e+00
4.543172e-02 0.000000e+00
4.568172e-02 0.000000e+00
4.593171e-02 0.000000e+00
4.618171e-02 0.000000e+00
4.643172e-02 0.000000e+00
4.668172e-02 0.000000e+00
4.693171e-02 0.000000e+00
4.718171e-02 0.000000e+00
4.743172e-02 0.000000e+00
4.768172e-02 0.000000e+00
4.793172e-02 0.000000e+00
4.818171e-02 0.000000e+00
4.843171e-02 0.000000e+00
4.868172e-02 0.000000e+00
4.893172e-02 0.000000e+00
4.918171e-02 0.000000e+00
4.943171e-02 0.000000e+00
4.968171e-02 0.000000e+00
4.993172e-02 0.000000e+00
5.018172e-02 0.000000e+00
5.043171e-02 0.000000e+00
5.068171e-02 0.000000e+00
5.093172e-02 0.000000e+00
5.118172e-02 0.000000e+00
5.143172e-02 0.000000e+00
5.168171e-02 0.000000e+00
5.193171e-02 0.000000e+00
5.218172e-02 0.000000e+00
5.243172e-02 0.000000e+00
5.268171e-02 0.000000e+00
5.293171e-02 0.000000e+00
5.318171e-02 0.000000e+00
5.343172e-02 0.000000e+00
5.368172e-02 0.000000e+00
5.393171e-02 0.000000e+00
5.418171e-02 0.000000e+00
5.443172e-02 0.000000e+00
5.468172e-02 0.000000e+00
5.493172e-02 0.000000e+00
5.518171e-02 0.000000e+00
5.543171e-02 0.000000e+00
5.568172e-02 0.000000e+00
5.593172e-02 0.000000e+00
5.618171e-02 0.000000e+00
5.643171e-02 0.000000e+00
5.668172e-02 0.000000e+00
5.693172e-02 0.000000e+00
5.718172e-02 0.000000e+00
5.743171e-02 0.000000e+00
5.768171e-02 0.000000e+00
5.793172e-02 0.000000e+00
5.818172e-02 0.000000e+00
5.843171e-02 0.000000e+00
5.868171e-02 1.401298e-45
5.893171e-02 2.802597e-45
5.918172e-02 4.203895e-45
5.943172e-02 4.203895e-45
5.968171e-02 1.401298e-45
5.993171e-02 -2.802597e-45
6.018172e-02 -7.006492e-45
6.043172e-02 -1.121039e-44
6.068172e-02 -1.261169e-44
6.093171e-02 -1.121039e-44
6.118171e-02 -7.006492e-45
6.143172e-02 1.401298e-45
6.168172e-02 1.261169e-44
6.193171e-02 2.101948e-44
6.218171e-02 2.522337e-44
6.243172e-02 2.101948e-44
6.268172e-02 8.407791e-45
6.293172e-02 -9.809089e-45
6.318171e-02 -3.082857e-44
6.343171e-02 -4.624285e-44
6.368172e-02 -4.764415e-44
6.393172e-02 -3.082857e-44
6.418172e-02 4.203895e-45
6.443171e-02 5.044674e-44
6.468171e-02 9.668959e-44
6.493172e-02 1.247156e-43
6.518172e-02 1.177091e-43
6.543171e-02 6.866362e-44
6.568171e-02 -1.961818e-44
6.593172e-02 -1.275182e-43
6.618172e-02 -2.214052e-43
6.643172e-02 -2.648454e-43
6.668171e-02 -2.270104e-43
6.693171e-02 -9.668959e-44
6.718172e-02 1.093013e-43
6.743172e-02 3.377129e-43
6.768171e-02 5.156778e-43
6.793171e-02 5.605194e-43
6.818172e-02 4.175869e-43
6.843172e-02 7.847271e-44
6.868172e-02 -3.937649e-43
6.893171e-02 -8.702063e-43
6.918171e-02 -1.181295e-42
6.943172e-02 -1.164479e-42
6.968172e-02 -7.258726e-43
6.993172e-02 1.050974e-43
7.018171e-02 1.150466e-42
7.043171e-02 2.100546e-42
7.068172e-02 2.585396e-42
7.093172e-02 2.291123e-42
7.118171e-02 1.088809e-42
7.143171e-02 -8.617986e-43
7.168172e-02 -3.087061e-42
7.193172e-02 -4.873716e-42
7.218172e-02 -5.452452e-42
7.243171e-02 -4.254342e-42
7.268171e-02 -1.181295e-42
7.293172e-02 3.222986e-42
7.318172e-02 7.781410e-42
7.343172e-02 1.091051e-41
7.368171e-02 1.107026e-41
7.393171e-02 7.332995e-42
7.418172e-02 -1.121039e-43
7.443172e-02 -9.695584e-42
7.468171e-02 -1.862606e-41
7.493171e-02 -2.352920e-41
7.518172e-02 -2.148751e-41
7.543172e-02 -1.121179e-41
7.568172e-02 6.026985e-42
7.593171e-02 2.610759e-41
7.618171e-02 4.270457e-41
7.643172e-02 4.891513e-41
7.668172e-02 3.954324e-41
7.693172e-02 1.345106e-41
7.718171e-02 -2.487725e-41
7.743172e-02 -6.532433e-41
7.768172e-02 -9.413363e-41
7.793172e-02 -9.776719e-41
7.818171e-02 -6.778641e-41
7.843171e-02 -5.302513e-42
7.868172e-02 7.672109e-41
7.893172e-02 1.547202e-40
7.918172e-02 1.999204e-40
7.943171e-02 1.870874e-40
7.968171e-02 1.044836e-40
7.993172e-02 -3.817838e-41
8.018172e-02 -2.071876e-40
8.043171e-02 -3.500892e-40
8.068171e-02 -4.090699e-40
8.093172e-02 -3.399648e-40
8.118172e-02 -1.316996e-40
8.143172e-02 1.806288e-40
8.168171e-02 5.154200e-40
8.193171e-02 7.606262e-40
8.218172e-02 8.050516e-40
8.243172e-02 5.779039e-40
8.268172e-02 8.495232e-41
8.293171e-02 -5.725818e-40
8.318172e-02 -1.207746e-39
8.343172e-02 -1.590523e-39
8.368172e-02 -1.517469e-39
8.393171e-02 -8.906849e-40
8.418171e-02 2.189473e-40
8.443172e-02 1.551162e-39
8.468172e-02 2.697046e-39
8.493172e-02 3.203255e-39
8.518171e-02 2.719932e-39
8.543171e-02 1.151818e-39
8.568172e-02 -1.239929e-39
8.593172e-02 -3.834554e-39
8.618172e-02 -5.774531e-39
8.643171e-02 -6.204169e-39
8.668172e-02 -4.571801e-39
8.693172e-02 -9.042705e-40
8.718172e-02 4.049271e-39
8.743171e-02 8.890085e-39
8.768171e-02 1.189052e-38
8.793172e-02 1.151463e-38
8.818172e-02 7.008544e-39
8.843172e-02 -1.129986e-39
8.868171e-02 -1.099877e-38
8.893172e-02 -1.959246e-38
8.918172e-02 -2.356985e-38
8.943172e-02 -2.033937e-38
8.968171e-02 -9.162244e-39
8.993171e-02 8.107560e-39
9.018172e-02 2.700334e-38
9.043172e-02 4.133672e-38
9.068172e-02 4.492322e-38
9.093171e-02 3.374843e-38
9.118171e-02 7.933555e-39
9.143172e-02 -2.725031e-38
9.168172e-02 -6.190930e-38
9.193172e-02 -8.380930e-38
9.218171e-02 -8.206277e-38
9.243172e-02 -5.127454e-38
9.268172e-02 5.175819e-39
9.293172e-02 7.409345e-38
9.318171e-02 1.345989e-37
9.343171e-02 1.634845e-37
9.368172e-02 1.427333e-37
9.393172e-02 6.711392e-38
9.418172e-02 -5.078554e-38
9.443171e-02 -1.804878e-37
9.468171e-02 -2.797875e-37
9.493172e-02 -3.065605e-37
9.518172e-02 -2.334539e-37
9.543172e-02 -6.110433e-38
9.568171e-02 1.751462e-37
9.593172e-02 4.089759e-37
9.618172e-02 5.585253e-37
9.643172e-02 5.510703e-37
9.668171e-02 3.505905e-37
9.693171e-02 -2.065720e-38
9.718172e-02 -4.756172e-37
9.743172e-02 -8.768494e-37
9.768172e-02 -1.072007e-36
9.793171e-02 -9.431985e-37
9.818172e-02 -4.563291e-37
9.843172e-02 3.066726e-37
9.868172e-02 1.148194e-36
9.893171e-02 1.795582e-36
9.918171e-02 1.977682e-36
9.943172e-02 1.519316e-36
9.968172e-02 4.252420e-37
9.993172e-02 -1.078328e-36
1.001817e-01 -2.569039e-36
1.004317e-01 -3.527943e-36
1.006817e-01 -3.496429e-36
1.009317e-01 -2.249414e-36
1.011817e-01 7.091386e-38
1.014317e-01 2.917161e-36
1.016817e-01 5.430224e-36
1.019317e-01 6.662949e-36
1.021817e-01 5.887179e-36
1.024317e-01 2.897772e-36
1.026817e-01 -1.793704e-36
1.029317e-01 -6.967330e-36
1.031817e-01 -1.095070e-35
1.034317e-01 -1.209103e-35
1.036817e-01 -9.331256e-36
1.039317e-01 -2.714419e-36
1.041817e-01 6.375169e-36
1.044317e-01 1.537828e-35
1.046817e-01 2.117215e-35
1.049317e-01 2.101803e-35
1.051817e-01 1.359548e-35
1.054317e-01 -2.145478e-37
1.056817e-01 -1.712702e-35
1.059317e-01 -3.203224e-35
1.061817e-01 -3.934113e-35
1.064317e-01 -3.480047e-35
1.066817e-01 -1.726541e-35
1.069317e-01 1.019641e-35
1.071817e-01 4.040270e-35
1.074317e-01 6.359397e-35
1.076817e-01 7.020967e-35
1.079317e-01 5.422479e-35
1.081817e-01 1.602442e-35
1.084317e-01 -3.628323e-35
1.086817e-01 -8.791465e-35
1.089317e-01 -1.209952e-34
1.091817e-01 -1.200097e-34
1.094317e-01 -7.766829e-35
1.096817e-01 7.468005e-37
1.099317e-01 9.639123e-35
1.101817e-01 1.803077e-34
1.104317e-01 2.211215e-34
1.106817e-01 1.952788e-34
1.109317e-01 9.686835e-35
1.111817e-01 -5.644385e-35
1.114317e-01 -2.242674e-34
1.116817e-01 -3.523314e-34
1.119317e-01 -3.880497e-34
1.121817e-01 -2.989205e-34
1.124317e-01 -8.808200e-35
1.126817e-01 1.989624e-34
1.129317e-01 4.806708e-34
1.131817e-01 6.595534e-34
1.134317e-01 6.520656e-34
1.136817e-01 4.202790e-34
1.139317e-01 -5.225440e-36
1.141817e-01 -5.209991e-34
1.144317e-01 -9.703464e-34
1.146817e-01 -1.185491e-33
1.149317e-01 -1.042527e-33
1.151817e-01 -5.132995e-34
1.154317e-01 3.044440e-34
1.156817e-01 1.193455e-33
1.159317e-01 1.865699e-33
1.161817e-01 2.045604e-33
1.164317e-01 1.566927e-33
1.166817e-01 4.528078e-34
1.169317e-01 -1.051879e-33
1.171817e-01 -2.517084e-33
1.174317e-01 -3.435229e-33
1.176817e-01 -3.377944e-33
1.179317e-01 -2.159156e-33
1.181817e-01 5.058575e-35
1.184317e-01 2.707179e-33
1.186817e-01 5.000134e-33
1.189317e-01 6.072947e-33
1.191817e-01 5.305632e-33
1.194317e-01 2.575316e-33
1.196817e-01 -1.598266e-33
1.199317e-01 -6.096123e-33
1.201817e-01 -9.456516e-33
1.204317e-01 -1.030176e-32
1.206817e-01 -7.824606e-33
1.209317e-01 -2.180686e-33
1.211817e-01 5.365519e-33
1.214317e-01 1.264275e-32
1.216817e-01 1.712492e-32
1.219317e-01 1.671702e-32
1.221817e-01 1.055697e-32
1.224317e-01 -4.401984e-34
1.226817e-01 -1.353017e-32
1.229317e-01 -2.469886e-32
1.231817e-01 -2.976853e-32
1.234317e-01 -2.578270e-32
1.236817e-01 -1.225810e-32
1.239317e-01 8.150224e-33
1.241817e-01 2.991673e-32
1.244317e-01 4.594062e-32
1.246817e-01 4.963941e-32
1.249317e-01 3.728481e-32
1.251817e-01 9.842256e-33
1.254317e-01 -2.641783e-32
1.256817e-01 -6.098439e-32
1.259317e-01 -8.182392e-32
1.261817e-01 -7.915251e-32
1.264317e-01 -4.920026e-32
1.266817e-01 3.316070e-33
1.269317e-01 6.510902e-32
1.271817e-01 1.171223e-31
1.274317e-01 1.398454e-31
1.276817e-01 1.198262e-31
1.279317e-01 5.541987e-32
1.281817e-01 -4.033426e-32
1.284317e-01 -1.412424e-31
1.286817e-01 -2.142412e-31
1.289317e-01 -2.292357e-31
1.291817e-01 -1.698453e-31
1.294317e-01 -4.162938e-32
1.296817e-01 1.255291e-31
1.299317e-01 2.828016e-31
1.301817e-01 3.752218e-31
1.304317e-01 3.590803e-31
1.306817e-01 2.188652e-31
1.309317e-01 -2.207797e-32
1.311817e-01 -3.019285e-31
1.314317e-01 -5.338658e-31
1.316817e-01 -6.305578e-31
1.319317e-01 -5.335440e-31
1.321817e-01 -2.384714e-31
1.324317e-01 1.930919e-31
1.326817e-01 6.418607e-31
1.329317e-01 9.600452e-31
1.331817e-01 1.015793e-30
1.334317e-01 7.406009e-31
1.336817e-01 1.644341e-31
1.339317e-01 -5.757738e-31
1.341817e-01 -1.262045e-30
1.344317e-01 -1.653494e-30
1.346817e-01 -1.563120e-30
1.349317e-01 -9.308918e-31
1.351817e-01 1.322159e-31
1.354317e-01 1.349580e-30
1.356817e-01 2.341077e-30
1.359317e-01 2.731608e-30
1.361817e-01 2.278215e-30
1.364317e-01 9.763846e-31
1.366817e-01 -8.942283e-31
1.369317e-01 -2.811121e-30
1.371817e-01 -4.139634e-30
1.374317e-01 -4.325531e-30
1.376817e-01 -3.096016e-30
1.379317e-01 -6.031236e-31
1.381817e-01 2.549212e-30
1.384317e-01 5.424985e-30
1.386817e-01 7.009708e-30
1.389317e-01 6.536398e-30
1.391817e-01 3.788447e-30
1.394317e-01 -7.276957e-31
1.396817e-01 -5.820798e-30
1.399317e-01 -9.889879e-30
1.401817e-01 -1.138715e-29
1.404317e-01 -9.346215e-30
1.406817e-01 -3.811483e-30
1.409317e-01 3.994378e-30
1.411817e-01 1.186810e-29
1.414317e-01 1.718784e-29
1.416817e-01 1.771618e-29
1.419317e-01 1.241842e-29
1.421817e-01 2.024612e-30
1.424317e-01 -1.089982e-29