-1.388183e-01 0.000000e+00
-1.385683e-01 0.000000e+00
-1.383183e-01 0.000000e+00
-1.380683e-01 0.000000e+00
-1.378183e-01 0.000000e+00
-1.375683e-01 0.000000e+00
-1.373183e-01 0.000000e+00
-1.370683e-01 0.000000e+00
-1.368183e-01 0.000000e+00
-1.365683e-01 0.000000e+00
-1.363183e-01 0.000000e+00
-1.360683e-01 0.000000e+00
-1.358183e-01 0.000000e+00
-1.355683e-01 0.000000e+00
-1.353183e-01 0.000000e+00
-1.350683e-01 0.000000e+00
-1.348183e-01 0.000000e+00
-1.345683e-01 0.000000e+00
-1.343183e-01 0.000000e+00
-1.340683e-01 0.000000e+00
-1.338183e-01 0.000000e+00
-1.335683e-01 0.000000e+00
-1.333183e-01 0.000000e+00
-1.330683e-01 0.000000e+00
-1.328183e-01 0.000000e+00
-1.325683e-01 0.000000e+00
-1.323183e-01 0.000000e+00
-1.320683e-01 0.000000e+00
-1.318183e-01 0.000000e+00
-1.315683e-01 0.000000e+00
-1.313183e-01 0.000000e+00
-1.310683e-01 0.000000e+00
-1.308183e-01 0.000000e+00
-1.305683e-01 0.000000e+00
-1.303183e-01 0.000000e+00
-1.300683e-01 0.000000e+00
-1.298183e-01 0.000000e+00
-1.295683e-01 0.000000e+00
-1.293183e-01 0.000000e+00
-1.290683e-01 0.000000e+00
-1.288183e-01 0.000000e+00
-1.285683e-01 0.000000e+00
-1.283183e-01 0.000000e+00
-1.280683e-01 0.000000e+00
-1.278183e-01 0.000000e+00
-1.275683e-01 0.000000e+00
-1.273183e-01 0.000000e+00
-1.270683e-01 0.000000e+00
-1.268183e-01 0.000000e+00
-1.265683e-01 0.000000e+00
-1.263183e-01 0.000000e+00
-1.260683e-01 0.000000e+00
-1.258183e-01 0.000000e+00
-1.255683e-01 0.000000e+00
-1.253183e-01 0.000000e+00
-1.250683e-01 0.000000e+00
-1.248183e-01 0.000000e+00
-1.245683e-01 0.000000e+00
-1.243183e-01 0.000000e+00
-1.240683e-01 0.000000e+00
-1.238183e-01 0.000000e+00
-1.235683e-01 0.000000e+00
-1.233183e-01 0.000000e+00
-1.230683e-01 0.000000e+00
-1.228183e-01 0.000000e+00
-1.225683e-01 0.000000e+00
-1.223183e-01 0.000000e+00
-1.220683e-01 0.000000e+00
-1.218183e-01 0.000000e+00
-1.215683e-01 0.000000e+00
-1.213183e-01 0.000000e+00
-1.210683e-01 0.000000e+00
-1.208183e-01 0.000000e+00
-1.205683e-01 0.000000e+00
-1.203183e-01 1.401298e-45
-1.200683e-01 5.605194e-45
-1.198183e-01 5.605194e-45
-1.195683e-01 -4.203895e-45
-1.193183e-01 -3.082857e-44
-1.190683e-01 -7.847271e-44
-1.188183e-01 -1.191104e-43
-1.185683e-01 -8.688050e-44
-1.183183e-01 1.457350e-43
-1.180683e-01 7.160635e-43
-1.178183e-01 1.624105e-42
-1.175683e-01 2.427049e-42
-1.173183e-01 1.874937e-42
-1.170683e-01 -2.218255e-42
-1.168183e-01 -1.220811e-41
-1.165683e-01 -2.815769e-41
-1.163183e-01 -4.327910e-41
-1.160683e-01 -3.850768e-41
-1.158183e-01 1.919779e-41
-1.155683e-01 1.663145e-40
-1.153183e-01 4.094006e-40
-1.150683e-01 6.644677e-40
-1.148183e-01 6.852994e-40
-1.145683e-01 3.576394e-41
-1.143183e-01 -1.792395e-39
-1.140683e-01 -4.994362e-39
-1.138183e-01 -8.744318e-39
-1.135683e-01 -1.033360e-38
-1.133183e-01 -4.732020e-39
-1.130683e-01 1.436405e-38
-1.128183e-01 5.070229e-38
-1.125683e-01 9.817645e-38
-1.123183e-01 1.314753e-37
-1.120683e-01 9.994739e-38
-1.118183e-01 -6.537285e-38
-1.115683e-01 -4.190273e-37
-1.113183e-01 -9.346339e-37
-1.110683e-01 -1.413888e-36
-1.108183e-01 -1.413009e-36
-1.105683e-01 -2.698166e-37
-1.103183e-01 2.657887e-36
-1.100683e-01 7.457758e-36
-1.098183e-01 1.287241e-35
-1.095683e-01 1.554259e-35
-1.093183e-01 9.906219e-36
-1.090683e-01 -1.036303e-35
-1.088183e-01 -4.858477e-35
-1.085683e-01 -9.896388e-35
-1.083183e-01 -1.398524e-34
-1.080683e-01 -1.305264e-34
-1.078183e-01 -1.784649e-35
-1.075683e-01 2.406504e-34
-1.073183e-01 6.349318e-34
-1.070683e-01 1.050137e-33
-1.068183e-01 1.228169e-33
-1.065683e-01 7.844905e-34
-1.063183e-01 -6.719783e-34
-1.060683e-01 -3.286577e-33
-1.058183e-01 -6.602395e-33
-1.055683e-01 -9.225187e-33
-1.053183e-01 -8.749207e-33
-1.050683e-01 -2.255717e-33
-1.048183e-01 1.236059e-32
-1.045683e-01 3.425655e-32
-1.043183e-01 5.724342e-32
-1.040683e-01 6.836284e-32
-1.038183e-01 4.924389e-32
-1.035683e-01 -1.795677e-32
-1.033183e-01 -1.393410e-31
-1.030683e-01 -2.946371e-31
-1.028183e-01 -4.247393e-31
-1.025683e-01 -4.307530e-31
-1.023183e-01 -1.954137e-31
-1.020683e-01 3.657519e-31
-1.018183e-01 1.226988e-30
-1.015683e-01 2.170184e-30
-1.013183e-01 2.740772e-30
-1.010683e-01 2.298877e-30
-1.008183e-01 2.171648e-31
-1.005683e-01 -3.762654e-30
-1.003183e-01 -9.081043e-30
-1.000683e-01 -1.399076e-29
-9.981829e-02 -1.553126e-29
-9.956829e-02 -1.013653e-29
-9.931830e-02 4.949562e-30
-9.906829e-02 2.957429e-29
-9.881829e-02 5.847778e-29
-9.856829e-02 8.007910e-29
-9.831829e-02 7.763190e-29
-9.806830e-02 3.393134e-29
-9.781829e-02 -6.021655e-29
-9.756829e-02 -1.953438e-28
-9.731829e-02 -3.343408e-28
-9.706829e-02 -4.109242e-28
-9.681829e-02 -3.416694e-28
-9.656829e-02 -5.519636e-29
-9.631829e-02 4.640060e-28
-9.606829e-02 1.128688e-27
-9.581830e-02 1.719935e-27
-9.556829e-02 1.902747e-27
-9.531829e-02 1.308636e-27
-9.506829e-02 -3.099366e-28
-9.481829e-02 -2.880198e-27
-9.456830e-02 -5.831043e-27
-9.431829e-02 -8.035485e-27
-9.406829e-02 -7.978854e-27
-9.381829e-02 -4.217689e-27
-9.356830e-02 3.902389e-27
-9.331829e-02 1.544361e-26
-9.306829e-02 2.730945e-26
-9.281829e-02 3.432360e-26
-9.256829e-02 3.031319e-26
-9.231830e-02 1.030673e-26
-9.206829e-02 -2.648968e-26
-9.181829e-02 -7.383133e-26
-9.156829e-02 -1.170551e-25
-9.131829e-02 -1.346708e-25
-9.106829e-02 -1.039307e-25
-9.081829e-02 -1.016761e-26
-9.056829e-02 1.421160e-25
-9.031829e-02 3.203444e-25
-9.006830e-02 4.623104e-25
-8.981829e-02 4.867225e-25
-8.956829e-02 3.178853e-25
-8.931829e-02 -7.857029e-26
-8.906829e-02 -6.584875e-25
-8.881830e-02 -1.275854e-24
-8.856829e-02 -1.690781e-24
-8.831829e-02 -1.621823e-24
-8.806829e-02 -8.433626e-25
-8.781829e-02 6.902518e-25
-8.756829e-02 2.732899e-24
-8.731829e-02 4.700889e-24
-8.706829e-02 5.745806e-24
-8.681829e-02 4.974573e-24
-8.656830e-02 1.797354e-24
-8.631829e-02 -3.679411e-24
-8.606829e-02 -1.035671e-23
-8.581829e-02 -1.611319e-23
-8.556829e-02 -1.818192e-23
-8.531829e-02 -1.397115e-23
-8.506829e-02 -2.200412e-24
-8.481829e-02 1.596692e-23
-8.456829e-02 3.625962e-23
-8.431830e-02 5.158901e-23
-8.406829e-02 5.361054e-23
-8.381829e-02 3.549748e-23
-8.356829e-02 -4.651807e-24
-8.331829e-02 -6.086515e-23
-8.306830e-02 -1.181946e-22
-8.281829e-02 -1.547102e-22
-8.256829e-02 -1.471341e-22
-8.231829e-02 -7.943425e-23
-8.206829e-02 4.778116e-23
-8.181829e-02 2.104564e-22
-8.156829e-02 3.606510e-22
-8.131829e-02 4.352975e-22
-8.106829e-02 3.745035e-22
-8.081830e-02 1.461161e-22
-8.056829e-02 -2.305397e-22
-8.031829e-02 -6.713685e-22
-8.006829e-02 -1.034032e-21
-7.981829e-02 -1.149627e-21
-7.956829e-02 -8.771117e-22
-7.931829e-02 -1.682716e-22
-7.906829e-02 8.778406e-22
-7.881829e-02 1.996068e-21
-7.856829e-02 2.792791e-21
-7.831829e-02 2.846990e-21
-7.806829e-02 1.859796e-21
-7.781829e-02 -1.866757e-22
-7.756829e-02 -2.918521e-21
-7.731830e-02 -5.567270e-21
-7.706829e-02 -7.115670e-21
-7.681829e-02 -6.590421e-21
-7.656829e-02 -3.443623e-21
-7.631829e-02 2.090018e-21
-7.606829e-02 8.804014e-21
-7.581829e-02 1.462962e-20
-7.556829e-02 1.710717e-20
-7.531829e-02 1.416737e-20
-7.506829e-02 5.035546e-21
-7.481829e-02 -9.038580e-21
-7.456829e-02 -2.455832e-20
-7.431829e-02 -3.631924e-20
-7.406829e-02 -3.876385e-20
-7.381829e-02 -2.791750e-20
-7.356829e-02 -3.376255e-21
-7.331829e-02 3.037584e-20
-7.306829e-02 6.402819e-20
-7.281829e-02 8.530701e-20
-7.256829e-02 8.252955e-20
-7.231829e-02 4.907365e-20
-7.206829e-02 -1.259845e-20
-7.181829e-02 -8.898757e-20
-7.156829e-02 -1.570437e-19
-7.131829e-02 -1.896123e-19
-7.106829e-02 -1.640615e-19
-7.081829e-02 -7.189744e-20
-7.056829e-02 7.385564e-20
-7.031829e-02 2.368908e-19
-7.006829e-02 3.638024e-19
-6.981829e-02 3.983333e-19
-6.956829e-02 3.008792e-19
-6.931829e-02 6.769180e-20
-6.906829e-02 -2.572989e-19
-6.881829e-02 -5.844894e-19
-6.856829e-02 -7.977047e-19
-6.831829e-02 -7.883790e-19
-6.806829e-02 -4.967360e-19
-6.781829e-02 5.295746e-20
-6.756829e-02 7.374759e-19
-6.731829e-02 1.351148e-18
-6.706829e-02 1.656583e-18
-6.681829e-02 1.460798e-18
-6.656829e-02 6.963094e-19
-6.631829e-02 -5.206080e-19
-6.606829e-02 -1.881639e-18
-6.581829e-02 -2.944573e-18
-6.556829e-02 -3.254837e-18
-6.531829e-02 -2.503790e-18
-6.506829e-02 -6.768528e-19
-6.481829e-02 1.864143e-18
-6.456829e-02 4.411023e-18
-6.431829e-02 6.070262e-18
-6.406829e-02 6.031349e-18
-6.381829e-02 3.874561e-18
-6.356829e-02 -1.813027e-19
-6.331829e-02 -5.194528e-18
-6.306829e-02 -9.650624e-18
-6.281829e-02 -1.185256e-17
-6.256829e-02 -1.047267e-17
-6.231829e-02 -5.110781e-18
-6.206829e-02 3.337316e-18
-6.181829e-02 1.267783e-17
-6.156829e-02 1.987336e-17
-6.131829e-02 2.190377e-17
-6.106829e-02 1.682802e-17
-6.081829e-02 4.720726e-18
-6.056829e-02 -1.187576e-17
-6.031829e-02 -2.825763e-17
-6.006829e-02 -3.869482e-17
-5.981829e-02 -3.819038e-17
-5.956829e-02 -2.439198e-17
-5.931829e-02 9.793752e-19
-5.906829e-02 3.179494e-17
-5.881829e-02 5.864505e-17
-5.856829e-02 7.136536e-17
-5.831829e-02 6.239587e-17
-5.806829e-02 2.998723e-17
-5.781829e-02 -1.989864e-17
-5.756829e-02 -7.394592e-17
-5.731829e-02 -1.144749e-16
-5.706829e-02 -1.246019e-16
-5.681829e-02 -9.424899e-17
-5.656829e-02 -2.509915e-17
-5.631829e-02 6.745158e-17
-5.606829e-02 1.566675e-16
-5.581829e-02 2.112730e-16
-5.556829e-02 2.052641e-16
-5.531829e-02 1.279692e-16
-5.506829e-02 -9.067254e-18
-5.481829e-02 -1.714242e-16
-5.456829e-02 -3.088862e-16
-5.431829e-02 -3.694258e-16
-5.406829e-02 -3.166783e-16
-5.381829e-02 -1.456013e-16
-5.356829e-02 1.094472e-16
-5.331829e-02 3.785246e-16
-5.306829e-02 5.728953e-16
-5.281829e-02 6.116184e-16
-5.256829e-02 4.507499e-16
-5.231829e-02 1.056485e-16
-5.206829e-02 -3.426233e-16
-5.181829e-02 -7.621130e-16
-5.156829e-02 -1.005062e-15
-5.131829e-02 -9.551760e-16
-5.106829e-02 -5.732488e-16
-5.081829e-02 7.476383e-17
-5.056829e-02 8.201735e-16
-5.031829e-02 1.429437e-15
-5.006829e-02 1.671246e-15
-4.981829e-02 1.395429e-15
-4.956829e-02 5.989792e-16
-4.931829e-02 -5.456818e-16
-4.906829e-02 -1.716783e-15
-4.881829e-02 -2.524755e-15
-4.856829e-02 -2.631658e-15
-4.831829e-02 -1.874793e-15
-4.806829e-02 -3.532864e-16
-4.781829e-02 1.558399e-15
-4.756829e-02 3.287691e-15
-4.731829e-02 4.221852e-15
-4.706829e-02 3.907438e-15
-4.681829e-02 2.231064e-15
-4.656829e-02 -4.829525e-16
-4.631829e-02 -3.505590e-15
-4.606829e-02 -5.878282e-15
-4.581829e-02 -6.695610e-15
-4.556829e-02 -5.418603e-15
-4.531829e-02 -2.118158e-15
-4.506829e-02 2.445340e-15
-4.481829e-02 6.960741e-15
-4.456829e-02 9.913222e-15
-4.431829e-02 1.005781e-14
-4.406829e-02 6.881111e-15
-4.381829e-02 8.940651e-16
-4.356829e-02 -6.370488e-15
-4.331829e-02 -1.270306e-14
-4.306829e-02 -1.584562e-14
-4.281829e-02 -1.423790e-14
-4.256829e-02 -7.650637e-15
-4.231829e-02 2.524455e-15
-4.206829e-02 1.348009e-14
-4.181829e-02 2.170426e-14
-4.156829e-02 2.403878e-14
-4.131829e-02 1.878638e-14
-4.106829e-02 6.503992e-15
-4.081829e-02 -9.831647e-15
-4.056829e-02 -2.543883e-14
-4.031829e-02 -3.504154e-14
-4.006829e-02 -3.454580e-14
-3.981829e-02 -2.257895e-14
-3.956829e-02 -1.358084e-15
-3.931829e-02 2.350284e-14
-3.906829e-02 4.434319e-14
-3.881829e-02 5.368730e-14
-3.856829e-02 4.674735e-14
-3.831829e-02 2.340589e-14
-3.806829e-02 -1.105708e-14
-3.781829e-02 -4.691859e-14
-3.756829e-02 -7.257763e-14
-3.731829e-02 -7.811470e-14
-3.706829e-02 -5.880972e-14
-3.681829e-02 -1.744721e-14
-3.656829e-02 3.552880e-14
-3.631829e-02 8.436803e-14
-3.606829e-02 1.124530e-13
-3.581829e-02 1.076508e-13
-3.556829e-02 6.693683e-14
-3.531829e-02 -1.338578e-15
-3.506829e-02 -7.861734e-14
-3.481829e-02 -1.408253e-13
-3.456829e-02 -1.655259e-13
-3.431829e-02 -1.395161e-13
-3.406829e-02 -6.441881e-14
-3.381829e-02 4.183997e-14
-3.356829e-02 1.487142e-13
-3.331829e-02 2.213621e-13
-3.306829e-02 2.314948e-13
-3.281829e-02 1.675169e-13
-3.256829e-02 4.053381e-14
-3.231829e-02 -1.162968e-13
-3.206829e-02 -2.557269e-13
-3.181829e-02 -3.300385e-13
-3.156829e-02 -3.065867e-13
-3.131829e-02 -1.804173e-13
-3.106829e-02 2.055517e-14
-3.081829e-02 2.404603e-13
-3.056829e-02 4.101528e-13
-3.031829e-02 4.680952e-13
-3.006829e-02 3.813909e-13
-2.981829e-02 1.601045e-13
-2.956829e-02 -1.406529e-13
-2.931829e-02 -4.330802e-13
-2.906829e-02 -6.212358e-13
-2.881829e-02 -6.312666e-13
-2.856829e-02 -4.381447e-13
-2.831829e-02 -7.975876e-14
-2.806829e-02 3.477718e-13
-2.781828e-02 7.143054e-13
-2.756829e-02 8.938672e-13
-2.731829e-02 8.060532e-13
-2.706829e-02 4.475462e-13
-2.681829e-02 -9.768599e-14
-2.656829e-02 -6.753466e-13
-2.631829e-02 -1.102593e-12
-2.606829e-02 -1.223963e-12
-2.581829e-02 -9.649100e-13
-2.556829e-02 -3.652830e-13
-2.531829e-02 4.204438e-13
-2.506829e-02 1.160061e-12
-2.481829e-02 1.609903e-12
-2.456829e-02 1.592349e-12
-2.431829e-02 1.060670e-12
-2.406829e-02 1.287926e-13
-2.381829e-02 -9.476094e-13
-2.356829e-02 -1.837962e-12
-2.331829e-02 -2.235255e-12
-2.306829e-02 -1.957721e-12
-2.281829e-02 -1.021175e-12
-2.256829e-02 3.445823e-13
-2.231829e-02 1.746698e-12
-2.206829e-02 2.738330e-12
-2.181829e-02 2.956855e-12
-2.156829e-02 2.249701e-12
-2.131829e-02 7.458237e-13
-2.106829e-02 -1.156007e-12
-2.081829e-02 -2.887110e-12
-2.056829e-02 -3.874039e-12
-2.031828e-02 -3.722516e-12
-2.006829e-02 -2.362827e-12
-1.981829e-02 -1.058178e-13
-1.956829e-02 2.417772e-12
-1.931829e-02 4.427060e-12
-1.906829e-02 5.226361e-12
-1.881829e-02 4.437049e-12
-1.856828e-02 2.151012e-12
-1.831829e-02 -1.051535e-12
-1.806829e-02 -4.239168e-12
-1.781829e-02 -6.392680e-12
-1.756829e-02 -6.722721e-12
-1.731829e-02 -4.945003e-12
-1.706829e-02 -1.420615e-12
-1.681828e-02 2.896731e-12
-1.656829e-02 6.708304e-12
-1.631829e-02 8.752223e-12
-1.606829e-02 8.210073e-12
-1.581829e-02 5.010352e-12
-1.556829e-02 -7.820381e-14
-1.531829e-02 -5.613148e-12
-1.506829e-02 -9.875765e-12
-1.481829e-02 -1.139377e-11
-1.456829e-02 -9.433690e-12
-1.431829e-02 -4.302595e-12
-1.406829e-02 2.654792e-12
-1.381829e-02 9.390587e-12
-1.356828e-02 1.374304e-11
-1.331829e-02 1.411537e-11
-1.306829e-02 1.003542e-11
-1.281829e-02 2.406423e-12
-1.256830e-02 -6.658475e-12
-1.231828e-02 -1.440239e-11
-1.206829e-02 -1.824612e-11
-1.181829e-02 -1.662515e-11
-1.156829e-02 -9.576720e-12
-1.131828e-02 1.132364e-12
-1.106828e-02 1.241762e-11
-1.081829e-02 2.074401e-11
-1.056829e-02 2.321120e-11
-1.031829e-02 1.852989e-11
-1.006828e-02 7.569170e-12
-9.818286e-03 -6.735817e-12
-9.568289e-03 -2.014048e-11
-9.318292e-03 -2.832684e-11
-9.068280e-03 -2.826629e-11
-8.818284e-03 -1.928638e-11
-8.568287e-03 -3.478632e-12
-8.318290e-03 1.473627e-11
-8.068293e-03 2.981670e-11
-7.818282e-03 3.676099e-11
-7.568285e-03 3.273110e-11
-7.318288e-03 1.812121e-11
-7.068291e-03 -3.311122e-12
-6.818295e-03 -2.536688e-11
-6.568283e-03 -4.117106e-11
-6.318286e-03 -4.528850e-11
-6.068289e-03 -3.554752e-11
-5.818292e-03 -1.397202e-11
-5.568281e-03 1.354081e-11
-5.318284e-03 3.879009e-11
-5.068287e-03 5.368559e-11
-4.818290e-03 5.280642e-11
-4.568294e-03 3.530561e-11
-4.318282e-03 5.509910e-12
-4.068285e-03 -2.807061e-11
-3.818288e-03 -5.512649e-11
-3.568292e-03 -6.667376e-11
-3.318280e-03 -5.798530e-11
-3.068283e-03 -3.038774e-11
-2.818286e-03 8.725970e-12
-2.568290e-03 4.780034e-11
-2.318293e-03 7.447240e-11
-2.068281e-03 7.942083e-11
-1.818284e-03 5.952772e-11
-1.568288e-03 1.930492e-11
-1.318291e-03 -2.998787e-11
-1.068294e-03 -7.341762e-11
-8.182824e-04 -9.682806e-11
-5.682856e-04 -9.135794e-11
-3.182888e-04 -5.660714e-11
-6.829202e-05 -1.359787e-12
1.817197e-04 5.853166e-11
4.317164e-04 1.046297e-10
6.817132e-04 1.215134e-10
9.317100e-04 1.018141e-10
1.181707e-03 4.906649e-11
1.431718e-03 -2.266414e-11
1.681715e-03 -9.247160e-11
1.931712e-03 -1.386753e-10
2.181709e-03 -1.455156e-10
2.431706e-03 -1.084236e-10
2.681717e-03 -3.612764e-11
2.931714e-03 5.125635e-11
3.181711e-03 1.277978e-10
3.431708e-03 1.694651e-10
3.681719e-03 1.616958e-10
3.931716e-03 1.044466e-10
4.181713e-03 1.299820e-11
4.431710e-03 -8.598128e-11
4.681706e-03 -1.621522e-10
4.931718e-03 -1.907941e-10
5.181715e-03 -1.608463e-10
5.431712e-03 -7.910463e-11
5.681708e-03 3.096173e-11
5.931720e-03 1.357043e-10
6.181717e-03 2.013592e-10
6.431714e-03 2.047175e-10
6.681710e-03 1.410786e-10
6.931707e-03 2.682680e-11
7.181719e-03 -1.044894e-10
7.431716e-03 -2.117196e-10
7.681713e-03 -2.586392e-10
7.931709e-03 -2.256806e-10
8.181706e-03 -1.171448e-10
8.431718e-03 3.862847e-11
8.681715e-03 1.965906e-10
8.931711e-03 3.079558e-10
9.181708e-03 3.350904e-10
9.431720e-03 2.637980e-10
9.681717e-03 1.090415e-10
9.931713e-03 -8.802040e-11
1.018171e-02 -2.712190e-10
1.043171e-02 -3.857425e-10
1.068172e-02 -3.948826e-10
1.093172e-02 -2.920084e-10
1.118171e-02 -1.038463e-10
1.143171e-02 1.163426e-10
1.168172e-02 3.040260e-10
1.193172e-02 4.027485e-10
1.218171e-02 3.817462e-10
1.243171e-02 2.462895e-10
1.268171e-02 3.723614e-11
1.293172e-02 -1.805131e-10
1.318172e-02 -3.375210e-10
1.343171e-02 -3.815234e-10
1.368171e-02 -2.946440e-10
1.393171e-02 -1.005265e-10
1.418172e-02 1.412993e-10
1.443172e-02 3.526270e-10
1.468171e-02 4.604977e-10
1.493171e-02 4.206581e-10
1.518172e-02 2.331913e-10
1.543172e-02 -5.493103e-11
1.568171e-02 -3.617940e-10
1.593171e-02 -5.939513e-10
1.618171e-02 -6.745804e-10
1.643172e-02 -5.678937e-10
1.668172e-02 -2.921128e-10
1.693171e-02 8.347002e-11
1.718171e-02 4.570931e-10
1.743171e-02 7.236959e-10
1.768172e-02 8.061223e-10
1.793171e-02 6.788795e-10
1.818171e-02 3.769419e-10
1.843171e-02 -1.356029e-11
1.868172e-02 -3.804417e-10
1.893172e-02 -6.190706e-10
1.918171e-02 -6.643524e-10
1.943171e-02 -5.111386e-10
1.968171e-02 -2.164096e-10
1.993172e-02 1.179581e-10
2.018172e-02 3.769992e-10
2.043171e-02 4.694935e-10
2.068171e-02 3.583744e-10
2.093172e-02 7.488827e-11
2.118172e-02 -2.885887e-10
2.143171e-02 -6.056506e-10
2.168171e-02 -7.551609e-10
2.193171e-02 -6.609104e-10
2.218172e-02 -3.192005e-10
2.243172e-02 1.948234e-10
2.268171e-02 7.450609e-10
2.293171e-02 1.172124e-09
2.318171e-02 1.340103e-09
2.343172e-02 1.178584e-09
2.368172e-02 7.068860e-10
2.393171e-02 3.262517e-11
2.418171e-02 -6.758988e-10
2.443172e-02 -1.236008e-09
2.468172e-02 -1.502347e-09
2.493171e-02 -1.408704e-09
2.518171e-02 -9.873251e-10
2.543171e-02 -3.596630e-10
2.568172e-02 2.990694e-10
2.593172e-02 8.111262e-10
2.618171e-02 1.048012e-09
2.643171e-02 9.672511e-10
2.668172e-02 6.228859e-10
2.693172e-02 1.465788e-10
2.718171e-02 -2.949659e-10
2.743171e-02 -5.531742e-10
2.768171e-02 -5.448562e-10
2.793172e-02 -2.786988e-10
2.818172e-02 1.474200e-10
2.843171e-02 5.778707e-10
2.868171e-02 8.497337e-10
2.893171e-02 8.467333e-10
2.918172e-02 5.394155e-10
2.943172e-02 -1.543705e-12
2.968171e-02 -6.237449e-10
2.993171e-02 -1.138305e-09
3.018172e-02 -1.378430e-09
3.043172e-02 -1.253211e-09
3.068171e-02 -7.796098e-10
3.093171e-02 -8.199617e-11
3.118171e-02 6.418150e-10
3.143172e-02 1.178420e-09
3.168172e-02 1.363487e-09
3.193171e-02 1.133684e-09
3.218171e-02 5.493055e-10
3.243172e-02 -2.197345e-10
3.268172e-02 -9.417211e-10
3.293172e-02 -1.390711e-09
3.318171e-02 -1.414334e-09
3.343171e-02 -9.812976e-10
3.368172e-02 -1.941575e-10
3.393172e-02 7.371512e-10
3.418171e-02 1.553583e-09
3.443171e-02 2.020344e-09
3.468171e-02 1.993756e-09
3.493172e-02 1.462436e-09
3.518172e-02 5.502670e-10
3.543171e-02 -5.187034e-10
3.568171e-02 -1.483741e-09
3.593172e-02 -2.119436e-09
3.618172e-02 -2.295578e-09
3.643171e-02 -2.007853e-09
3.668171e-02 -1.370698e-09
3.693171e-02 -5.765545e-10
3.718172e-02 1.657449e-10
3.743172e-02 6.934075e-10
3.768171e-02 9.336075e-10
3.793171e-02 9.167329e-10
3.818171e-02 7.548462e-10
3.843172e-02 5.942669e-10
3.868172e-02 5.582224e-10
3.893171e-02 6.987965e-10
3.918171e-02 9.745408e-10
3.943172e-02 1.261091e-09
3.968172e-02 1.392398e-09
3.993171e-02 1.219328e-09
4.018171e-02 6.665413e-10
4.043171e-02 -2.303101e-10
4.068172e-02 -1.320894e-09
4.093172e-02 -2.372403e-09
4.118171e-02 -3.128651e-09
4.143171e-02 -3.380897e-09
4.168172e-02 -3.027545e-09
4.193172e-02 -2.106722e-09
4.218172e-02 -7.907796e-10
4.243171e-02 6.556373e-10
4.268171e-02 1.941947e-09
4.293172e-02 2.824255e-09
4.318172e-02 3.163369e-09
4.343171e-02 2.951905e-09
4.368171e-02 2.305726e-09
4.393171e-02 1.422213e-09
4.418172e-02 5.194882e-10
4.443172e-02 -2.237644e-10
4.468171e-02 -7.123496e-10
4.493171e-02 -9.483017e-10
4.518172e-02 -1.014891e-09
4.543172e-02 -1.034988e-09
4.568172e-02 -1.121275e-09
4.593171e-02 -1.332373e-09
4.618171e-02 -1.650424e-09
4.643172e-02 -1.985096e-09
4.668172e-02 -2.202929e-09
4.693171e-02 -2.172987e-09
4.718171e-02 -1.810251e-09
4.743172e-02 -1.108515e-09
4.768172e-02 -1.476008e-10
4.793172e-02 9.235822e-10
4.818171e-02 1.922980e-09
4.843171e-02 2.680770e-09
4.868172e-02 3.078257e-09
4.893172e-02 3.071194e-09
4.918171e-02 2.692205e-09
4.943171e-02 2.031738e-09
4.968171e-02 1.207526e-09
4.993172e-02 3.327325e-10
5.018172e-02 -5.091561e-10
5.043171e-02 -1.272431e-09
5.068171e-02 -1.943401e-09
5.093172e-02 -2.520874e-09
5.118172e-02 -2.995672e-09
5.143172e-02 -3.336520e-09
5.168171e-02 -3.487184e-09
5.193171e-02 -3.380343e-09
5.218172e-02 -2.958427e-09
5.243172e-02 -2.201956e-09
5.268171e-02 -1.146103e-09
5.293171e-02 1.108329e-10
5.318171e-02 1.419667e-09
5.343172e-02 2.605691e-09
5.368172e-02 3.500166e-09
5.393171e-02 3.975025e-09
5.418171e-02 3.965423e-09
5.443172e-02 3.477839e-09
5.468172e-02 2.584761e-09
5.493172e-02 1.404213e-09
5.518171e-02 7.459935e-11
5.543171e-02 -1.266810e-09
5.568172e-02 -2.501040e-09
5.593172e-02 -3.532281e-09
5.618171e-02 -4.289682e-09
5.643171e-02 -4.720182e-09
5.668172e-02 -4.786087e-09
5.693172e-02 -4.468141e-09
5.718172e-02 -3.774210e-09
5.743171e-02 -2.741665e-09
5.768171e-02 -1.454427e-09
5.793172e-02 -3.614370e-11
5.818172e-02 1.357178e-09
5.843171e-02 2.561179e-09
5.868171e-02 3.424509e-09
5.893171e-02 3.840874e-09
5.918172e-02 3.768709e-09
5.943172e-02 3.234179e-09
5.968171e-02 2.322063e-09
5.993171e-02 1.156764e-09
6.018172e-02 -1.243186e-10
6.043172e-02 -1.401852e-09
6.068172e-02 -2.579956e-09
6.093171e-02 -3.598781e-09
6.118171e-02 -4.422358e-09
6.143172e-02 -5.019391e-09
6.168172e-02 -5.351604e-09
6.193171e-02 -5.367052e-09
6.218171e-02 -5.005183e-09
6.243172e-02 -4.226417e-09
6.268172e-02 -3.029869e-09
6.293172e-02 -1.486575e-09
6.318171e-02 2.573117e-10
6.343171e-02 1.982768e-09
6.368172e-02 3.440204e-09
6.393172e-02 4.377893e-09
6.418172e-02 4.611215e-09
6.443171e-02 4.058975e-09
6.468171e-02 2.770096e-09
6.493172e-02 9.188821e-10
6.518172e-02 -1.224123e-09
6.543171e-02 -3.352860e-09
6.568171e-02 -5.180320e-09
6.593172e-02 -6.489366e-09
6.618172e-02 -7.163533e-09
6.643172e-02 -7.195554e-09
6.668171e-02 -6.671208e-09
6.693171e-02 -5.736975e-09
6.718172e-02 -4.552906e-09
6.743172e-02 -3.252282e-09
6.768171e-02 -1.945804e-09
6.793171e-02 -7.041159e-10
6.818172e-02 4.112957e-10
6.843172e-02 1.350584e-09
6.868172e-02 2.035307e-09
6.893171e-02 2.382324e-09
6.918171e-02 2.297013e-09
6.943172e-02 1.708075e-09
6.968172e-02 6.173380e-10
6.993172e-02 -9.200083e-10
7.018171e-02 -2.757632e-09
7.043171e-02 -4.671979e-09
7.068172e-02 -6.416963e-09
7.093172e-02 -7.749142e-09
7.118171e-02 -8.500000e-09
7.143171e-02 -8.585765e-09
7.168172e-02 -8.053068e-09
7.193172e-02 -7.041088e-09
7.218172e-02 -5.735347e-09
7.243171e-02 -4.372597e-09
7.268171e-02 -3.137139e-09
7.293172e-02 -2.160853e-09
7.318172e-02 -1.506515e-09
7.343172e-02 -1.164753e-09
7.368171e-02 -1.092105e-09
7.393171e-02 -1.216741e-09
7.418172e-02 -1.491782e-09
7.443172e-02 -1.904870e-09
7.468171e-02 -2.461770e-09
7.493171e-02 -3.180901e-09
7.518172e-02 -4.063109e-09
7.543172e-02 -5.073756e-09
7.568172e-02 -6.136182e-09
7.593171e-02 -7.133331e-09
7.618171e-02 -7.952545e-09
7.643172e-02 -8.473648e-09
7.668172e-02 -8.638770e-09
7.693172e-02 -8.436182e-09
7.718171e-02 -7.942606e-09
7.743172e-02 -7.258681e-09
7.768172e-02 -6.546745e-09
7.793172e-02 -5.962765e-09
7.818171e-02 -5.616571e-09
7.843171e-02 -5.574923e-09
7.868172e-02 -5.841829e-09
7.893172e-02 -6.342870e-09
7.918172e-02 -7.023303e-09
7.943171e-02 -7.781394e-09
7.968171e-02 -8.525681e-09
7.993172e-02 -9.171954e-09
8.018172e-02 -9.626361e-09
8.043171e-02 -9.893911e-09
8.068171e-02 -9.897783e-09
8.093172e-02 -9.670194e-09
8.118172e-02 -9.207606e-09
8.143172e-02 -8.565895e-09
8.168171e-02 -7.819437e-09
8.193171e-02 -7.097225e-09
8.218172e-02 -6.508010e-09
8.243172e-02 -6.192282e-09
8.268172e-02 -6.294385e-09
8.293171e-02 -6.885212e-09
8.318172e-02 -7.975776e-09
8.343172e-02 -9.496054e-09
8.368172e-02 -1.131694e-08
8.393171e-02 -1.323165e-08
8.418171e-02 -1.504727e-08
8.443172e-02 -1.653182e-08
8.468172e-02 -1.758417e-08
8.493172e-02 -1.812717e-08
8.518171e-02 -1.816736e-08
8.543171e-02 -1.774598e-08
8.568172e-02 -1.695660e-08
8.593172e-02 -1.590176e-08
8.618172e-02 -1.471166e-08
8.643171e-02 -1.345590e-08
8.668172e-02 -1.220728e-08
8.693172e-02 -1.108607e-08
8.718172e-02 -1.013115e-08
8.743171e-02 -9.485854e-09
8.768171e-02 -9.268213e-09
8.793172e-02 -9.522198e-09
8.818172e-02 -1.032578e-08
8.843172e-02 -1.164601e-08
8.868171e-02 -1.344546e-08
8.893172e-02 -1.550368e-08
8.918172e-02 -1.767590e-08
8.943172e-02 -1.973561e-08
8.968171e-02 -2.147950e-08
8.993171e-02 -2.274920e-08
9.018172e-02 -2.350387e-08
9.043172e-02 -2.374566e-08
9.068172e-02 -2.364142e-08
9.093171e-02 -2.324637e-08
9.118171e-02 -2.277538e-08
9.143172e-02 -2.226495e-08
9.168172e-02 -2.187494e-08
9.193172e-02 -2.155267e-08
9.218171e-02 -2.131071e-08
9.243172e-02 -2.113167e-08
9.268172e-02 -2.087802e-08
9.293172e-02 -2.055467e-08
9.318171e-02 -2.026453e-08
9.343171e-02 -2.003575e-08
9.368172e-02 -1.999911e-08
9.393172e-02 -2.015380e-08
9.418172e-02 -2.058020e-08
9.443171e-02 -2.120436e-08
9.468171e-02 -2.194527e-08
9.493172e-02 -2.270177e-08
9.518172e-02 -2.334664e-08
9.543172e-02 -2.390765e-08
9.568171e-02 -2.436970e-08
9.593172e-02 -2.494253e-08
9.618172e-02 -2.558818e-08
9.643172e-02 -2.643719e-08
9.668171e-02 -2.744927e-08
9.693171e-02 -2.869477e-08
9.718172e-02 -3.005919e-08
9.743172e-02 -3.134343e-08
9.768172e-02 -3.243567e-08
9.793171e-02 -3.321462e-08
9.818172e-02 -3.359643e-08
9.843172e-02 -3.362653e-08
9.868172e-02 -3.324475e-08
9.893171e-02 -3.257674e-08
9.918171e-02 -3.179017e-08
9.943172e-02 -3.080538e-08
9.968172e-02 -2.974646e-08
9.993172e-02 -2.860526e-08
1.001817e-01 -2.772646e-08
1.004317e-01 -2.702658e-08
1.006817e-01 -2.656508e-08
1.009317e-01 -2.649694e-08
1.011817e-01 -2.674720e-08
1.014317e-01 -2.742314e-08
1.016817e-01 -2.831814e-08
1.019317e-01 -2.934587e-08
1.021817e-01 -3.034287e-08
1.024317e-01 -3.137014e-08
1.026817e-01 -3.244409e-08
1.029317e-01 -3.352113e-08
1.031817e-01 -3.471700e-08
1.034317e-01 -3.597585e-08
1.036817e-01 -3.729604e-08
1.039317e-01 -3.833978e-08
1.041817e-01 -3.895108e-08
1.044317e-01 -3.921002e-08
1.046817e-01 -3.886614e-08
1.049317e-01 -3.803099e-08
1.051817e-01 -3.687202e-08
1.054317e-01 -3.554727e-08
1.056817e-01 -3.425234e-08
1.059317e-01 -3.321221e-08
1.061817e-01 -3.246288e-08
1.064317e-01 -3.207051e-08
1.066817e-01 -3.193234e-08
1.069317e-01 -3.200243e-08
1.071817e-01 -3.211084e-08
1.074317e-01 -3.213954e-08
1.076817e-01 -3.223529e-08
1.079317e-01 -3.229480e-08
1.081817e-01 -3.241020e-08
1.084317e-01 -3.237780e-08
1.086817e-01 -3.234409e-08
1.089317e-01 -3.214192e-08
1.091817e-01 -3.187994e-08
1.094317e-01 -3.152071e-08
1.096817e-01 -3.124994e-08
1.099317e-01 -3.098253e-08
1.101817e-01 -3.081090e-08
1.104317e-01 -3.057619e-08
1.106817e-01 -3.035312e-08
1.109317e-01 -3.022232e-08
1.111817e-01 -3.004725e-08
1.114317e-01 -2.977703e-08
1.116817e-01 -2.958260e-08
1.119317e-01 -2.935999e-08
1.121817e-01 -2.922005e-08
1.124317e-01 -2.919177e-08
1.126817e-01 -2.947166e-08
1.129317e-01 -2.965838e-08
1.131817e-01 -2.984540e-08
1.134317e-01 -2.948244e-08
1.136817e-01 -2.845644e-08
1.139317e-01 -2.658964e-08
1.141817e-01 -2.440458e-08
1.144317e-01 -2.190834e-08
1.146817e-01 -1.950292e-08
1.149317e-01 -1.755873e-08
1.151817e-01 -1.617966e-08
1.154317e-01 -1.537341e-08
1.156817e-01 -1.470952e-08
1.159317e-01 -1.400116e-08
1.161817e-01 -1.298825e-08
1.164317e-01 -1.166078e-08
1.166817e-01 -9.980107e-09
1.169317e-01 -8.263735e-09
1.171817e-01 -6.781460e-09
1.174317e-01 -6.056075e-09
1.176817e-01 -6.067011e-09
1.179317e-01 -6.509533e-09
1.181817e-01 -7.299240e-09
1.184317e-01 -7.922654e-09
1.186817e-01 -7.971846e-09
1.189317e-01 -7.221044e-09
1.191817e-01 -5.401098e-09
1.194317e-01 -3.165939e-09
1.196817e-01 -5.772001e-10
1.199317e-01 1.905467e-09
1.201817e-01 4.114888e-09
1.204317e-01 5.726547e-09
1.206817e-01 7.231959e-09
1.209317e-01 8.772956e-09
1.211817e-01 1.055461e-08
1.214317e-01 1.292925e-08
1.216817e-01 1.578719e-08
1.219317e-01 1.883018e-08
1.221817e-01 2.200343e-08
1.224317e-01 2.499054e-08
1.226817e-01 2.754736e-08
1.229317e-01 2.958149e-08
1.231817e-01 3.108298e-08
1.234317e-01 3.207906e-08
1.236817e-01 3.310947e-08
1.239317e-01 3.420090e-08
1.241817e-01 3.565262e-08
1.244317e-01 3.748216e-08
1.246817e-01 3.948433e-08
1.249317e-01 4.170430e-08
1.251817e-01 4.407678e-08
1.254317e-01 4.631283e-08
1.256817e-01 4.858767e-08
1.259317e-01 5.056549e-08
1.261817e-01 5.241342e-08
1.264317e-01 5.433619e-08
1.266817e-01 5.643595e-08
1.269317e-01 5.895459e-08
1.271817e-01 6.169665e-08
1.274317e-01 6.473634e-08
1.276817e-01 6.782242e-08
1.279317e-01 7.094481e-08
1.281817e-01 7.399104e-08
1.284317e-01 7.677413e-08
1.286817e-01 7.943267e-08
1.289317e-01 8.196561e-08
1.291817e-01 8.443692e-08
1.294317e-01 8.705018e-08
1.296817e-01 8.978541e-08
1.299317e-01 9.241760e-08
1.301817e-01 9.513094e-08
1.304317e-01 9.809158e-08
1.306817e-01 1.012133e-07
1.309317e-01 1.045964e-07
1.311817e-01 1.080895e-07
1.314317e-01 1.114671e-07
1.316817e-01 1.147829e-07
1.319317e-01 1.175703e-07
1.321817e-01 1.201803e-07
1.324317e-01 1.225111e-07
1.326817e-01 1.246724e-07
1.329317e-01 1.272040e-07
1.331817e-01 1.297233e-07
1.334317e-01 1.325461e-07
1.336817e-01 1.355135e-07
1.339317e-01 1.385222e-07
1.341817e-01 1.412738e-07
1.344317e-01 1.437025e-07
1.346817e-01 1.457050e-07
1.349317e-01 1.474468e-07
1.351817e-01 1.493129e-07
1.354317e-01 1.512591e-07
1.356817e-01 1.536610e-07
1.359317e-01 1.564212e-07
1.361817e-01 1.598159e-07
1.364317e-01 1.635361e-07
1.366817e-01 1.671324e-07
1.369317e-01 1.703965e-07
1.371817e-01 1.731663e-07
1.374317e-01 1.756529e-07
1.376817e-01 1.780766e-07
1.379317e-01 1.806650e-07
1.381817e-01 1.833897e-07