-1.388183e-01 0.000000e+00
-1.385683e-01 0.000000e+00
-1.383183e-01 0.000000e+00
-1.380683e-01 0.000000e+00
-1.378183e-01 0.000000e+00
-1.375683e-01 0.000000e+00
-1.373183e-01 0.000000e+00
-1.370683e-01 0.000000e+00
-1.368183e-01 0.000000e+00
-1.365683e-01 0.000000e+00
-1.363183e-01 0.000000e+00
-1.360683e-01 0.000000e+00
-1.358183e-01 0.000000e+00
-1.355683e-01 0.000000e+00
-1.353183e-01 0.000000e+00
-1.350683e-01 0.000000e+00
-1.348183e-01 0.000000e+00
-1.345683e-01 0.000000e+00
-1.343183e-01 0.000000e+00
-1.340683e-01 0.000000e+00
-1.338183e-01 0.000000e+00
-1.335683e-01 0.000000e+00
-1.333183e-01 0.000000e+00
-1.330683e-01 0.000000e+00
-1.328183e-01 0.000000e+00
-1.325683e-01 0.000000e+00
-1.323183e-01 0.000000e+00
-1.320683e-01 0.000000e+00
-1.318183e-01 0.000000e+00
-1.315683e-01 0.000000e+00
-1.313183e-01 0.000000e+00
-1.310683e-01 0.000000e+00
-1.308183e-01 0.000000e+00
-1.305683e-01 0.000000e+00
-1.303183e-01 0.000000e+00
-1.300683e-01 0.000000e+00
-1.298183e-01 0.000000e+00
-1.295683e-01 0.000000e+00
-1.293183e-01 0.000000e+00
-1.290683e-01 0.000000e+00
-1.288183e-01 0.000000e+00
-1.285683e-01 0.000000e+00
-1.283183e-01 0.000000e+00
-1.280683e-01 0.000000e+00
-1.278183e-01 0.000000e+00
-1.275683e-01 0.000000e+00
-1.273183e-01 0.000000e+00
-1.270683e-01 0.000000e+00
-1.268183e-01 0.000000e+00
-1.265683e-01 0.000000e+00
-1.263183e-01 0.000000e+00
-1.260683e-01 0.000000e+00
-1.258183e-01 0.000000e+00
-1.255683e-01 0.000000e+00
-1.253183e-01 0.000000e+00
-1.250683e-01 0.000000e+00
-1.248183e-01 0.000000e+00
-1.245683e-01 0.000000e+00
-1.243183e-01 0.000000e+00
-1.240683e-01 0.000000e+00
-1.238183e-01 0.000000e+00
-1.235683e-01 0.000000e+00
-1.233183e-01 0.000000e+00
-1.230683e-01 0.000000e+00
-1.228183e-01 0.000000e+00
-1.225683e-01 0.000000e+00
-1.223183e-01 0.000000e+00
-1.220683e-01 0.000000e+00
-1.218183e-01 0.000000e+00
-1.215683e-01 0.000000e+00
-1.213183e-01 0.000000e+00
-1.210683e-01 0.000000e+00
-1.208183e-01 0.000000e+00
-1.205683e-01 0.000000e+00
-1.203183e-01 0.000000e+00
-1.200683e-01 0.000000e+00
-1.198183e-01 0.000000e+00
-1.195683e-01 0.000000e+00
-1.193183e-01 0.000000e+00
-1.190683e-01 0.000000e+00
-1.188183e-01 0.000000e+00
-1.185683e-01 0.000000e+00
-1.183183e-01 0.000000e+00
-1.180683e-01 0.000000e+00
-1.178183e-01 0.000000e+00
-1.175683e-01 0.000000e+00
-1.173183e-01 0.000000e+00
-1.170683e-01 0.000000e+00
-1.168183e-01 0.000000e+00
-1.165683e-01 0.000000e+00
-1.163183e-01 0.000000e+00
-1.160683e-01 0.000000e+00
-1.158183e-01 0.000000e+00
-1.155683e-01 0.000000e+00
-1.153183e-01 0.000000e+00
-1.150683e-01 0.000000e+00
-1.148183e-01 0.000000e+00
-1.145683e-01 0.000000e+00
-1.143183e-01 0.000000e+00
-1.140683e-01 0.000000e+00
-1.138183e-01 0.000000e+00
-1.135683e-01 0.000000e+00
-1.133183e-01 0.000000e+00
-1.130683e-01 0.000000e+00
-1.128183e-01 0.000000e+00
-1.125683e-01 0.000000e+00
-1.123183e-01 0.000000e+00
-1.120683e-01 0.000000e+00
-1.118183e-01 0.000000e+00
-1.115683e-01 0.000000e+00
-1.113183e-01 0.000000e+00
-1.110683e-01 0.000000e+00
-1.108183e-01 0.000000e+00
-1.105683e-01 0.000000e+00
-1.103183e-01 0.000000e+00
-1.100683e-01 0.000000e+00
-1.098183e-01 0.000000e+00
-1.095683e-01 0.000000e+00
-1.093183e-01 0.000000e+00
-1.090683e-01 0.000000e+00
-1.088183e-01 0.000000e+00
-1.085683e-01 0.000000e+00
-1.083183e-01 0.000000e+00
-1.080683e-01 0.000000e+00
-1.078183e-01 0.000000e+00
-1.075683e-01 0.000000e+00
-1.073183e-01 0.000000e+00
-1.070683e-01 0.000000e+00
-1.068183e-01 0.000000e+00
-1.065683e-01 0.000000e+00
-1.063183e-01 0.000000e+00
-1.060683e-01 0.000000e+00
-1.058183e-01 0.000000e+00
-1.055683e-01 0.000000e+00
-1.053183e-01 0.000000e+00
-1.050683e-01 0.000000e+00
-1.048183e-01 0.000000e+00
-1.045683e-01 0.000000e+00
-1.043183e-01 0.000000e+00
-1.040683e-01 0.000000e+00
-1.038183e-01 0.000000e+00
-1.035683e-01 0.000000e+00
-1.033183e-01 0.000000e+00
-1.030683e-01 0.000000e+00
-1.028183e-01 0.000000e+00
-1.025683e-01 0.000000e+00
-1.023183e-01 0.000000e+00
-1.020683e-01 0.000000e+00
-1.018183e-01 0.000000e+00
-1.015683e-01 0.000000e+00
-1.013183e-01 0.000000e+00
-1.010683e-01 0.000000e+00
-1.008183e-01 0.000000e+00
-1.005683e-01 0.000000e+00
-1.003183e-01 0.000000e+00
-1.000683e-01 0.000000e+00
-9.981829e-02 0.000000e+00
-9.956829e-02 0.000000e+00
-9.931830e-02 0.000000e+00
-9.906829e-02 0.000000e+00
-9.881829e-02 0.000000e+00
-9.856829e-02 0.000000e+00
-9.831829e-02 0.000000e+00
-9.806830e-02 0.000000e+00
-9.781829e-02 0.000000e+00
-9.756829e-02 0.000000e+00
-9.731829e-02 0.000000e+00
-9.706829e-02 0.000000e+00
-9.681829e-02 0.000000e+00
-9.656829e-02 0.000000e+00
-9.631829e-02 0.000000e+00
-9.606829e-02 0.000000e+00
-9.581830e-02 0.000000e+00
-9.556829e-02 0.000000e+00
-9.531829e-02 0.000000e+00
-9.506829e-02 0.000000e+00
-9.481829e-02 0.000000e+00
-9.456830e-02 0.000000e+00
-9.431829e-02 0.000000e+00
-9.406829e-02 0.000000e+00
-9.381829e-02 0.000000e+00
-9.356830e-02 0.000000e+00
-9.331829e-02 0.000000e+00
-9.306829e-02 0.000000e+00
-9.281829e-02 0.000000e+00
-9.256829e-02 0.000000e+00
-9.231830e-02 0.000000e+00
-9.206829e-02 0.000000e+00
-9.181829e-02 0.000000e+00
-9.156829e-02 0.000000e+00
-9.131829e-02 0.000000e+00
-9.106829e-02 0.000000e+00
-9.081829e-02 0.000000e+00
-9.056829e-02 0.000000e+00
-9.031829e-02 0.000000e+00
-9.006830e-02 0.000000e+00
-8.981829e-02 0.000000e+00
-8.956829e-02 0.000000e+00
-8.931829e-02 0.000000e+00
-8.906829e-02 0.000000e+00
-8.881830e-02 0.000000e+00
-8.856829e-02 0.000000e+00
-8.831829e-02 0.000000e+00
-8.806829e-02 0.000000e+00
-8.781829e-02 0.000000e+00
-8.756829e-02 0.000000e+00
-8.731829e-02 0.000000e+00
-8.706829e-02 0.000000e+00
-8.681829e-02 0.000000e+00
-8.656830e-02 0.000000e+00
-8.631829e-02 0.000000e+00
-8.606829e-02 0.000000e+00
-8.581829e-02 0.000000e+00
-8.556829e-02 0.000000e+00
-8.531829e-02 0.000000e+00
-8.506829e-02 0.000000e+00
-8.481829e-02 0.000000e+00
-8.456829e-02 0.000000e+00
-8.431830e-02 0.000000e+00
-8.406829e-02 0.000000e+00
-8.381829e-02 0.000000e+00
-8.356829e-02 0.000000e+00
-8.331829e-02 0.000000e+00
-8.306830e-02 0.000000e+00
-8.281829e-02 0.000000e+00
-8.256829e-02 0.000000e+00
-8.231829e-02 0.000000e+00
-8.206829e-02 0.000000e+00
-8.181829e-02 0.000000e+00
-8.156829e-02 0.000000e+00
-8.131829e-02 0.000000e+00
-8.106829e-02 0.000000e+00
-8.081830e-02 0.000000e+00
-8.056829e-02 0.000000e+00
-8.031829e-02 0.000000e+00
-8.006829e-02 0.000000e+00
-7.981829e-02 0.000000e+00
-7.956829e-02 0.000000e+00
-7.931829e-02 0.000000e+00
-7.906829e-02 0.000000e+00
-7.881829e-02 0.000000e+00
-7.856829e-02 0.000000e+00
-7.831829e-02 0.000000e+00
-7.806829e-02 0.000000e+00
-7.781829e-02 0.000000e+00
-7.756829e-02 0.000000e+00
-7.731830e-02 0.000000e+00
-7.706829e-02 0.000000e+00
-7.681829e-02 0.000000e+00
-7.656829e-02 0.000000e+00
-7.631829e-02 0.000000e+00
-7.606829e-02 0.000000e+00
-7.581829e-02 0.000000e+00
-7.556829e-02 0.000000e+00
-7.531829e-02 0.000000e+00
-7.506829e-02 0.000000e+00
-7.481829e-02 0.000000e+00
-7.456829e-02 0.000000e+00
-7.431829e-02 0.000000e+00
-7.406829e-02 0.000000e+00
-7.381829e-02 0.000000e+00
-7.356829e-02 0.000000e+00
-7.331829e-02 0.000000e+00
-7.306829e-02 0.000000e+00
-7.281829e-02 0.000000e+00
-7.256829e-02 0.000000e+00
-7.231829e-02 0.000000e+00
-7.206829e-02 0.000000e+00
-7.181829e-02 0.000000e+00
-7.156829e-02 0.000000e+00
-7.131829e-02 0.000000e+00
-7.106829e-02 0.000000e+00
-7.081829e-02 0.000000e+00
-7.056829e-02 0.000000e+00
-7.031829e-02 0.000000e+00
-7.006829e-02 0.000000e+00
-6.981829e-02 0.000000e+00
-6.956829e-02 0.000000e+00
-6.931829e-02 0.000000e+00
-6.906829e-02 0.000000e+00
-6.881829e-02 0.000000e+00
-6.856829e-02 0.000000e+00
-6.831829e-02 0.000000e+00
-6.806829e-02 0.000000e+00
-6.781829e-02 0.000000e+00
-6.756829e-02 0.000000e+00
-6.731829e-02 0.000000e+00
-6.706829e-02 0.000000e+00
-6.681829e-02 0.000000e+00
-6.656829e-02 0.000000e+00
-6.631829e-02 0.000000e+00
-6.606829e-02 0.000000e+00
-6.581829e-02 0.000000e+00
-6.556829e-02 0.000000e+00
-6.531829e-02 0.000000e+00
-6.506829e-02 0.000000e+00
-6.481829e-02 0.000000e+00
-6.456829e-02 0.000000e+00
-6.431829e-02 0.000000e+00
-6.406829e-02 0.000000e+00
-6.381829e-02 0.000000e+00
-6.356829e-02 0.000000e+00
-6.331829e-02 0.000000e+00
-6.306829e-02 0.000000e+00
-6.281829e-02 0.000000e+00
-6.256829e-02 0.000000e+00
-6.231829e-02 0.000000e+00
-6.206829e-02 0.000000e+00
-6.181829e-02 0.000000e+00
-6.156829e-02 0.000000e+00
-6.131829e-02 0.000000e+00
-6.106829e-02 0.000000e+00
-6.081829e-02 0.000000e+00
-6.056829e-02 0.000000e+00
-6.031829e-02 0.000000e+00
-6.006829e-02 0.000000e+00
-5.981829e-02 0.000000e+00
-5.956829e-02 0.000000e+00
-5.931829e-02 0.000000e+00
-5.906829e-02 0.000000e+00
-5.881829e-02 0.000000e+00
-5.856829e-02 0.000000e+00
-5.831829e-02 0.000000e+00
-5.806829e-02 0.000000e+00
-5.781829e-02 0.000000e+00
-5.756829e-02 0.000000e+00
-5.731829e-02 0.000000e+00
-5.706829e-02 0.000000e+00
-5.681829e-02 0.000000e+00
-5.656829e-02 0.000000e+00
-5.631829e-02 0.000000e+00
-5.606829e-02 0.000000e+00
-5.581829e-02 0.000000e+00
-5.556829e-02 0.000000e+00
-5.531829e-02 0.000000e+00
-5.506829e-02 0.000000e+00
-5.481829e-02 0.000000e+00
-5.456829e-02 0.000000e+00
-5.431829e-02 0.000000e+00
-5.406829e-02 0.000000e+00
-5.381829e-02 0.000000e+00
-5.356829e-02 0.000000e+00
-5.331829e-02 0.000000e+00
-5.306829e-02 0.000000e+00
-5.281829e-02 0.000000e+00
-5.256829e-02 0.000000e+00
-5.231829e-02 0.000000e+00
-5.206829e-02 0.000000e+00
-5.181829e-02 0.000000e+00
-5.156829e-02 0.000000e+00
-5.131829e-02 0.000000e+00
-5.106829e-02 0.000000e+00
-5.081829e-02 0.000000e+00
-5.056829e-02 0.000000e+00
-5.031829e-02 0.000000e+00
-5.006829e-02 0.000000e+00
-4.981829e-02 0.000000e+00
-4.956829e-02 0.000000e+00
-4.931829e-02 0.000000e+00
-4.906829e-02 0.000000e+00
-4.881829e-02 0.000000e+00
-4.856829e-02 0.000000e+00
-4.831829e-02 0.000000e+00
-4.806829e-02 0.000000e+00
-4.781829e-02 0.000000e+00
-4.756829e-02 0.000000e+00
-4.731829e-02 0.000000e+00
-4.706829e-02 0.000000e+00
-4.681829e-02 0.000000e+00
-4.656829e-02 0.000000e+00
-4.631829e-02 0.000000e+00
-4.606829e-02 0.000000e+00
-4.581829e-02 0.000000e+00
-4.556829e-02 0.000000e+00
-4.531829e-02 0.000000e+00
-4.506829e-02 0.000000e+00
-4.481829e-02 0.000000e+00
-4.456829e-02 0.000000e+00
-4.431829e-02 0.000000e+00
-4.406829e-02 0.000000e+00
-4.381829e-02 0.000000e+00
-4.356829e-02 0.000000e+00
-4.331829e-02 0.000000e+00
-4.306829e-02 0.000000e+00
-4.281829e-02 0.000000e+00
-4.256829e-02 0.000000e+00
-4.231829e-02 0.000000e+00
-4.206829e-02 0.000000e+00
-4.181829e-02 0.000000e+00
-4.156829e-02 0.000000e+00
-4.131829e-02 0.000000e+00
-4.106829e-02 0.000000e+00
-4.081829e-02 0.000000e+00
-4.056829e-02 0.000000e+00
-4.031829e-02 0.000000e+00
-4.006829e-02 0.000000e+00
-3.981829e-02 0.000000e+00
-3.956829e-02 0.000000e+00
-3.931829e-02 0.000000e+00
-3.906829e-02 0.000000e+00
-3.881829e-02 0.000000e+00
-3.856829e-02 0.000000e+00
-3.831829e-02 0.000000e+00
-3.806829e-02 0.000000e+00
-3.781829e-02 0.000000e+00
-3.756829e-02 0.000000e+00
-3.731829e-02 0.000000e+00
-3.706829e-02 0.000000e+00
-3.681829e-02 0.000000e+00
-3.656829e-02 0.000000e+00
-3.631829e-02 0.000000e+00
-3.606829e-02 0.000000e+00
-3.581829e-02 0.000000e+00
-3.556829e-02 0.000000e+00
-3.531829e-02 0.000000e+00
-3.506829e-02 0.000000e+00
-3.481829e-02 0.000000e+00
-3.456829e-02 0.000000e+00
-3.431829e-02 0.000000e+00
-3.406829e-02 0.000000e+00
-3.381829e-02 0.000000e+00
-3.356829e-02 0.000000e+00
-3.331829e-02 0.000000e+00
-3.306829e-02 0.000000e+00
-3.281829e-02 0.000000e+00
-3.256829e-02 0.000000e+00
-3.231829e-02 0.000000e+00
-3.206829e-02 0.000000e+00
-3.181829e-02 0.000000e+00
-3.156829e-02 0.000000e+00
-3.131829e-02 0.000000e+00
-3.106829e-02 0.000000e+00
-3.081829e-02 0.000000e+00
-3.056829e-02 0.000000e+00
-3.031829e-02 0.000000e+00
-3.006829e-02 0.000000e+00
-2.981829e-02 0.000000e+00
-2.956829e-02 0.000000e+00
-2.931829e-02 0.000000e+00
-2.906829e-02 0.000000e+00
-2.881829e-02 0.000000e+00
-2.856829e-02 0.000000e+00
-2.831829e-02 0.000000e+00
-2.806829e-02 0.000000e+00
-2.781828e-02 0.000000e+00
-2.756829e-02 0.000000e+00
-2.731829e-02 0.000000e+00
-2.706829e-02 0.000000e+00
-2.681829e-02 0.000000e+00
-2.656829e-02 0.000000e+00
-2.631829e-02 0.000000e+00
-2.606829e-02 0.000000e+00
-2.581829e-02 0.000000e+00
-2.556829e-02 0.000000e+00
-2.531829e-02 0.000000e+00
-2.506829e-02 0.000000e+00
-2.481829e-02 0.000000e+00
-2.456829e-02 0.000000e+00
-2.431829e-02 0.000000e+00
-2.406829e-02 0.000000e+00
-2.381829e-02 0.000000e+00
-2.356829e-02 0.000000e+00
-2.331829e-02 0.000000e+00
-2.306829e-02 0.000000e+00
-2.281829e-02 0.000000e+00
-2.256829e-02 0.000000e+00
-2.231829e-02 0.000000e+00
-2.206829e-02 0.000000e+00
-2.181829e-02 0.000000e+00
-2.156829e-02 0.000000e+00
-2.131829e-02 0.000000e+00
-2.106829e-02 0.000000e+00
-2.081829e-02 0.000000e+00
-2.056829e-02 0.000000e+00
-2.031828e-02 0.000000e+00
-2.006829e-02 0.000000e+00
-1.981829e-02 0.000000e+00
-1.956829e-02 0.000000e+00
-1.931829e-02 0.000000e+00
-1.906829e-02 0.000000e+00
-1.881829e-02 0.000000e+00
-1.856828e-02 0.000000e+00
-1.831829e-02 0.000000e+00
-1.806829e-02 2.802597e-45
-1.781829e-02 4.203895e-45
-1.756829e-02 4.203895e-45
-1.731829e-02 5.605194e-45
-1.706829e-02 2.802597e-45
-1.681828e-02 -7.006492e-45
-1.656829e-02 -9.809089e-45
-1.631829e-02 -1.261169e-44
-1.606829e-02 -2.101948e-44
-1.581829e-02 -1.821688e-44
-1.556829e-02 -1.401298e-44
-1.531829e-02 2.802597e-45
-1.506829e-02 2.242078e-44
-1.481829e-02 4.484155e-44
-1.456829e-02 5.324934e-44
-1.431829e-02 4.764415e-44
-1.406829e-02 1.821688e-44
-1.381829e-02 -3.082857e-44
-1.356828e-02 -8.968310e-44
-1.331829e-02 -1.387285e-43
-1.306829e-02 -1.527415e-43
-1.281829e-02 -1.163078e-43
-1.256830e-02 -1.121039e-44
-1.231828e-02 1.415311e-43
-1.206829e-02 3.166935e-43
-1.181829e-02 4.386064e-43
-1.156829e-02 4.540207e-43
-1.131828e-02 2.858649e-43
-1.106828e-02 -6.305843e-44
-1.081829e-02 -5.437038e-43
-1.056829e-02 -1.032757e-42
-1.031829e-02 -1.331234e-42
-1.006828e-02 -1.241550e-42
-9.818286e-03 -6.193739e-43
-9.568289e-03 5.198817e-43
-9.318292e-03 1.959015e-42
-9.068280e-03 3.269229e-42
-8.818284e-03 3.871788e-42
-8.568287e-03 3.228592e-42
-8.318290e-03 1.035560e-42
-8.068293e-03 -2.520936e-42
-7.818282e-03 -6.640753e-42
-7.568285e-03 -9.960429e-42
-7.318288e-03 -1.083624e-41
-7.068291e-03 -7.872495e-42
-6.818295e-03 -5.661246e-43
-6.568283e-03 1.008094e-41
-6.318286e-03 2.136700e-41
-6.068289e-03 2.917223e-41
-5.818292e-03 2.897185e-41
-5.568281e-03 1.747559e-41
-5.318284e-03 -5.616404e-42
-5.068287e-03 -3.623898e-41
-4.818290e-03 -6.569007e-41
-4.568294e-03 -8.207825e-41
-4.318282e-03 -7.365925e-41
-4.068285e-03 -3.339014e-41
-3.818288e-03 3.635108e-41
-3.568292e-03 1.208298e-40
-3.318280e-03 1.935642e-40
-3.068283e-03 2.217793e-40
-2.818286e-03 1.764949e-40
-2.568290e-03 4.522971e-41
-2.318293e-03 -1.564872e-40
-2.068281e-03 -3.797757e-40
-1.818284e-03 -5.478068e-40
-1.568288e-03 -5.741330e-40
-1.318291e-03 -3.920441e-40
-1.068294e-03 1.193346e-41
-8.182824e-04 5.717522e-40
-5.682856e-04 1.135629e-39
-3.182888e-04 1.490302e-39
-6.829202e-05 1.418477e-39
1.817197e-04 7.802514e-40
4.317164e-04 -4.031297e-40
6.817132e-04 -1.894588e-39
9.317100e-04 -3.247770e-39
1.181707e-03 -3.896029e-39
1.431718e-03 -3.321743e-39
1.681715e-03 -1.272128e-39
1.931712e-03 2.043097e-39
2.181709e-03 5.854406e-39
2.431706e-03 8.911147e-39
2.681717e-03 9.772961e-39
2.931714e-03 7.283774e-39
3.181711e-03 1.116971e-39
3.431708e-03 -7.788662e-39
3.681719e-03 -1.710892e-38
3.931716e-03 -2.349386e-38
4.181713e-03 -2.344997e-38
4.431710e-03 -1.460482e-38
4.681706e-03 2.982838e-39
4.931718e-03 2.594654e-38
5.181715e-03 4.766063e-38
5.431712e-03 5.953546e-38
5.681708e-03 5.352722e-38
5.931720e-03 2.535916e-38
6.181717e-03 -2.250169e-38
6.431714e-03 -7.932264e-38
6.681710e-03 -1.271382e-37
6.931707e-03 -1.448714e-37
7.181719e-03 -1.151061e-37
7.431716e-03 -3.191453e-38
7.681713e-03 9.281915e-38
7.931709e-03 2.274914e-37
8.181706e-03 3.255724e-37
8.431718e-03 3.376803e-37
8.681715e-03 2.289867e-37
8.931711e-03 -2.679294e-39
9.181708e-03 -3.145566e-37
9.431720e-03 -6.191380e-37
9.681717e-03 -8.010989e-37
9.931713e-03 -7.504812e-37
1.018171e-02 -4.053997e-37
1.043171e-02 2.083546e-37
1.068172e-02 9.566433e-37
1.093172e-02 1.609452e-36
1.118171e-02 1.893241e-36
1.143171e-02 1.577359e-36
1.168172e-02 5.740171e-37
1.193172e-02 -9.806779e-37
1.218171e-02 -2.701159e-36
1.243171e-02 -4.010532e-36
1.268171e-02 -4.289089e-36
1.293172e-02 -3.088582e-36
1.318172e-02 -3.549517e-37
1.343171e-02 3.420081e-36
1.368171e-02 7.198344e-36
1.393171e-02 9.595907e-36
1.418172e-02 9.277714e-36
1.443172e-02 5.464620e-36
1.468171e-02 -1.597246e-36
1.493171e-02 -1.039027e-35
1.518172e-02 -1.826614e-35
1.543172e-02 -2.204833e-35
1.568171e-02 -1.902478e-35
1.593171e-02 -8.092596e-36
1.618171e-02 9.317175e-36
1.643172e-02 2.894551e-35
1.668172e-02 4.435339e-35
1.693171e-02 4.857659e-35
1.718171e-02 3.650277e-35
1.743171e-02 7.329927e-36
1.768172e-02 -3.376905e-35
1.793171e-02 -7.563753e-35
1.818171e-02 -1.033102e-34
1.843171e-02 -1.022658e-34
1.868172e-02 -6.385703e-35
1.893172e-02 9.696858e-36
1.918171e-02 1.027170e-34
1.943171e-02 1.875671e-34
1.968171e-02 2.309788e-34
1.993172e-02 2.043932e-34
2.018172e-02 9.579057e-35
2.043171e-02 -8.084042e-35
2.068171e-02 -2.825717e-34
2.093172e-02 -4.442198e-34
2.118172e-02 -4.951593e-34
2.143171e-02 -3.832484e-34
2.168171e-02 -9.933959e-35
2.193171e-02 3.063540e-34
2.218172e-02 7.244478e-34
2.243172e-02 1.008068e-33
2.268171e-02 1.014643e-33
2.293171e-02 6.587009e-34
2.318171e-02 -4.016397e-35
2.343172e-02 -9.329705e-34
2.368172e-02 -1.756545e-33
2.393171e-02 -2.194477e-33
2.418171e-02 -1.975382e-33
2.443172e-02 -9.839696e-34
2.468172e-02 6.514289e-34
2.493171e-02 2.533423e-33
2.518171e-02 4.059638e-33
2.543171e-02 4.579362e-33
2.568172e-02 3.613341e-33
2.593172e-02 1.075815e-33
2.618171e-02 -2.580524e-33
2.643171e-02 -6.371228e-33
2.668172e-02 -8.979841e-33
2.693172e-02 -9.134443e-33
2.718171e-02 -6.076376e-33
2.743171e-02 2.099052e-35
2.768171e-02 7.848198e-33
2.793172e-02 1.510494e-32
2.818172e-02 1.904172e-32
2.843171e-02 1.731608e-32
2.868171e-02 8.945096e-33
2.893171e-02 -4.960167e-33
2.918172e-02 -2.100296e-32
2.943172e-02 -3.407290e-32
2.968171e-02 -3.869081e-32
2.993171e-02 -3.086071e-32
3.018172e-02 -9.907520e-33
3.043172e-02 2.036081e-32
3.068171e-02 5.176950e-32
3.093171e-02 7.348326e-32
3.118171e-02 7.513153e-32
3.143172e-02 5.062707e-32
3.168172e-02 1.504672e-33
3.193171e-02 -6.154200e-32
3.218171e-02 -1.199657e-31
3.243172e-02 -1.518211e-31
3.268172e-02 -1.386381e-31
3.293172e-02 -7.291895e-32
3.318171e-02 3.624046e-32
3.343171e-02 1.619130e-31
3.368172e-02 2.641037e-31
3.393172e-02 3.004284e-31
3.418171e-02 2.404952e-31
3.443171e-02 7.986251e-32
3.468171e-02 -1.514927e-31
3.493172e-02 -3.906647e-31
3.518172e-02 -5.553695e-31
3.543171e-02 -5.679369e-31
3.568171e-02 -3.839813e-31
3.593172e-02 -1.682119e-32
3.618172e-02 4.521263e-31
3.643171e-02 8.843180e-31
3.668171e-02 1.118116e-30
3.693171e-02 1.019824e-30
3.718172e-02 5.380875e-31
3.743172e-02 -2.567213e-31
3.768171e-02 -1.165921e-30
3.793171e-02 -1.899532e-30
3.818171e-02 -2.154987e-30
3.843172e-02 -1.720441e-30
3.868172e-02 -5.724918e-31
3.893171e-02 1.067609e-30
3.918171e-02 2.749623e-30
3.943172e-02 3.894601e-30
3.968172e-02 3.965826e-30
3.993171e-02 2.668012e-30
4.018171e-02 1.117413e-31
4.043171e-02 -3.123528e-30
4.068172e-02 -6.075481e-30
4.093172e-02 -7.640956e-30
4.118171e-02 -6.927760e-30
4.143171e-02 -3.619860e-30
4.168172e-02 1.769055e-30
4.193172e-02 7.870396e-30
4.218172e-02 1.272913e-29
4.243171e-02 1.434395e-29
4.268171e-02 1.135629e-29
4.293172e-02 3.683065e-30
4.318172e-02 -7.142772e-30
4.343171e-02 -1.811439e-29
4.368171e-02 -2.544371e-29
4.393171e-02 -2.569541e-29
4.418172e-02 -1.707218e-29
4.443172e-02 -4.374897e-31
4.468171e-02 2.034525e-29
4.493171e-02 3.904011e-29
4.518172e-02 4.864537e-29
4.543172e-02 4.365189e-29
4.568172e-02 2.231929e-29
4.593171e-02 -1.182110e-29
4.618171e-02 -4.994529e-29
4.643172e-02 -7.975645e-29
4.668172e-02 -8.894542e-29
4.693171e-02 -6.947131e-29
4.718171e-02 -2.136234e-29
4.743172e-02 4.540194e-29
4.768172e-02 1.120323e-28
4.793172e-02 1.554035e-28
4.818171e-02 1.550805e-28
4.843171e-02 1.010399e-28
4.868172e-02 -4.359796e-31
4.893172e-02 -1.251706e-28
4.918171e-02 -2.353550e-28
4.943171e-02 -2.895275e-28
4.968171e-02 -2.561125e-28
4.993172e-02 -1.266323e-28
5.018172e-02 7.607787e-29
5.043171e-02 2.986437e-28
5.068171e-02 4.686935e-28
5.093172e-02 5.156065e-28
5.118172e-02 3.953549e-28
5.143172e-02 1.117434e-28
5.168171e-02 -2.741291e-28
5.193171e-02 -6.521231e-28
5.218172e-02 -8.901368e-28
5.243172e-02 -8.748520e-28
5.268171e-02 -5.550780e-28
5.293171e-02 2.673076e-29
5.318171e-02 7.283301e-28
5.343172e-02 1.334670e-27
5.368172e-02 1.616008e-27
5.393171e-02 1.403928e-27
5.418171e-02 6.629293e-28
5.443172e-02 -4.681490e-28
5.468172e-02 -1.685780e-27
5.493172e-02 -2.590347e-27
5.518171e-02 -2.802845e-27
5.543171e-02 -2.099896e-27
5.568172e-02 -5.244411e-28
5.593172e-02 1.571356e-27
5.618171e-02 3.580461e-27
5.643171e-02 4.794832e-27
5.668172e-02 4.627185e-27
5.693172e-02 2.838810e-27
5.718172e-02 -3.037356e-28
5.743171e-02 -4.012280e-27
5.768171e-02 -7.136573e-27
5.793172e-02 -8.482308e-27
5.818172e-02 -7.211759e-27
5.843171e-02 -3.206812e-27
5.868171e-02 2.738539e-27
5.893171e-02 8.998298e-27
5.918172e-02 1.349713e-26
5.943172e-02 1.432758e-26
5.968171e-02 1.043893e-26
5.993171e-02 2.176163e-27
6.018172e-02 -8.547414e-27
6.043172e-02 -1.857931e-26
6.068172e-02 -2.435010e-26
6.093171e-02 -2.300875e-26
6.118171e-02 -1.354653e-26
6.143172e-02 2.478397e-27
6.168172e-02 2.094613e-26
6.193171e-02 3.605819e-26
6.218171e-02 4.197586e-26
6.243172e-02 3.480707e-26
6.268172e-02 1.433255e-26
6.293172e-02 -1.517274e-26
6.318171e-02 -4.548767e-26
6.343171e-02 -6.645255e-26
6.368172e-02 -6.904469e-26
6.393172e-02 -4.868553e-26
6.418172e-02 -7.695535e-27
6.443171e-02 4.411339e-26
6.468171e-02 9.128340e-26
6.493172e-02 1.168514e-25
6.518172e-02 1.078284e-25
6.543171e-02 6.041409e-26
6.568171e-02 -1.688706e-26
6.593172e-02 -1.037256e-25
6.618172e-02 -1.724941e-25
6.643172e-02 -1.962911e-25
6.668171e-02 -1.582109e-25
6.693171e-02 -5.905366e-26
6.718172e-02 7.948122e-26
6.743172e-02 2.180898e-25
6.768171e-02 3.097895e-25
6.793171e-02 3.143881e-25
6.818172e-02 2.134525e-25
6.843172e-02 2.077955e-26
6.868172e-02 -2.160624e-25
6.893171e-02 -4.253697e-25
6.918171e-02 -5.309917e-25
6.943172e-02 -4.773103e-25
6.968172e-02 -2.520324e-25
6.993172e-02 1.013653e-25
7.018171e-02 4.877429e-25
7.043171e-02 7.827131e-25
7.068172e-02 8.692336e-25
7.093172e-02 6.786406e-25
7.118171e-02 2.230443e-25
7.143171e-02 -3.935439e-25
7.168172e-02 -9.931260e-25
7.193172e-02 -1.370062e-24
7.218172e-02 -1.355458e-24
7.243171e-02 -8.811618e-25
7.268171e-02 -2.159093e-26
7.293172e-02 1.004892e-24
7.318172e-02 1.883051e-24
7.343172e-02 2.289350e-24
7.368171e-02 1.999704e-24
7.393171e-02 9.835127e-25
7.418172e-02 -5.503950e-25
7.443172e-02 -2.180278e-24
7.468171e-02 -3.374790e-24
7.493171e-02 -3.652220e-24
7.518172e-02 -2.752041e-24
7.543172e-02 -7.630517e-25
7.568172e-02 1.843096e-24
7.593171e-02 4.301468e-24
7.618171e-02 5.758582e-24
7.643172e-02 5.543990e-24
7.668172e-02 3.429082e-24
7.693172e-02 -2.164939e-25
7.718171e-02 -4.441994e-24
7.743172e-02 -7.931604e-24
7.768172e-02 -9.382084e-24
7.793172e-02 -7.943471e-24
7.818171e-02 -3.585629e-24
7.843171e-02 2.746172e-24
7.868172e-02 9.276353e-24
7.893172e-02 1.384923e-23
7.918172e-02 1.458640e-23
7.943171e-02 1.056677e-23
7.968171e-02 2.303915e-24
7.993172e-02 -8.174997e-24
8.018172e-02 -1.774535e-23
8.043171e-02 -2.304254e-23
8.068171e-02 -2.154946e-23
8.093172e-02 -1.258827e-23
8.118172e-02 2.133414e-24
8.143172e-02 1.868275e-23
8.168171e-02 3.183634e-23
8.193171e-02 3.660917e-23
8.218172e-02 2.996635e-23
8.243172e-02 1.217454e-23
8.268172e-02 -1.272253e-23
8.293171e-02 -3.761351e-23
8.318172e-02 -5.417825e-23
8.343172e-02 -5.546775e-23
8.368172e-02 -3.846298e-23
8.393171e-02 -5.750347e-24
8.418171e-02 3.439653e-23
8.443172e-02 6.982568e-23
8.468172e-02 8.791847e-23
8.493172e-02 7.973035e-23
8.518171e-02 4.359648e-23
8.543171e-02 -1.309501e-23
8.568172e-02 -7.486166e-23
8.593172e-02 -1.219516e-22
8.618172e-02 -1.362319e-22
8.643171e-02 -1.075113e-22
8.668172e-02 -3.825705e-23
8.693172e-02 5.513962e-23
8.718172e-02 1.455404e-22
8.743171e-02 2.023480e-22
8.768171e-02 2.011454e-22
8.793172e-02 1.328507e-22
8.818172e-02 9.249724e-24
8.843172e-02 -1.375318e-22
8.868171e-02 -2.624280e-22
8.893172e-02 -3.203496e-22
8.918172e-02 -2.812026e-22
8.943172e-02 -1.423344e-22
8.968171e-02 6.615582e-23
8.993171e-02 2.861691e-22
9.018172e-02 4.464494e-22
9.043172e-02 4.841901e-22
9.068172e-02 3.672842e-22
9.093171e-02 1.099041e-22
9.118171e-02 -2.248419e-22
9.143172e-02 -5.381188e-22
9.168172e-02 -7.225585e-22
9.193172e-02 -6.966003e-22
9.218171e-02 -4.356704e-22
9.243172e-02 1.067124e-23
9.268172e-02 5.235370e-22
9.293172e-02 9.433183e-22
9.318171e-02 1.116309e-21
9.343171e-02 9.466588e-22
9.368172e-02 4.372116e-22
9.393172e-02 -2.960790e-22
9.418172e-02 -1.045057e-21
9.443171e-02 -1.564128e-21
9.468171e-02 -1.645925e-21
9.493172e-02 -1.195970e-21
9.518172e-02 -2.813847e-22
9.543172e-02 8.665225e-22
9.568171e-02 1.903733e-21
9.593172e-02 2.470257e-21
9.618172e-02 2.306947e-21
9.643172e-02 1.356703e-21
9.668171e-02 -1.858925e-22
9.693171e-02 -1.900794e-21
9.718172e-02 -3.247387e-21
9.743172e-02 -3.725182e-21
9.768172e-02 -3.045477e-21
9.793171e-02 -1.258735e-21
9.818172e-02 1.211151e-21
9.843172e-02 3.651070e-21
9.868172e-02 5.251209e-21
9.893171e-02 5.358311e-21
9.918171e-02 3.714906e-21
9.943172e-02 6.032276e-22
9.968172e-02 -3.167973e-21
9.993172e-02 -6.452630e-21
1.001817e-01 -8.096013e-21
1.004317e-01 -7.314749e-21
1.006817e-01 -4.010053e-21
1.009317e-01 1.099153e-21
1.011817e-01 6.593684e-21
1.014317e-01 1.071997e-20
1.016817e-01 1.191971e-20
1.019317e-01 9.372305e-21
1.021817e-01 3.372595e-21
1.024317e-01 -4.604588e-21
1.026817e-01 -1.221983e-20
1.029317e-01 -1.691531e-20
1.031817e-01 -1.672616e-20
1.034317e-01 -1.101306e-20
1.036817e-01 -8.630087e-22
1.039317e-01 1.102137e-20
1.041817e-01 2.098091e-20
1.044317e-01 2.546804e-20
1.046817e-01 2.223039e-20
1.049317e-01 1.123593e-20
1.051817e-01 -5.001754e-21
1.054317e-01 -2.189035e-20
1.056817e-01 -3.397584e-20
1.059317e-01 -3.661469e-20
1.061817e-01 -2.761445e-20
1.064317e-01 -8.298390e-21
1.066817e-01 1.643737e-20
1.069317e-01 3.923360e-20
1.071817e-01 5.234253e-20
1.074317e-01 5.011889e-20
1.076817e-01 3.116587e-20
1.079317e-01 -6.176151e-22
1.081817e-01 -3.658483e-20
1.084317e-01 -6.552450e-20
1.086817e-01 -7.698735e-20
1.089317e-01 -6.481949e-20
1.091817e-01 -2.977060e-20
1.094317e-01 1.980758e-20
1.096817e-01 6.966213e-20
1.099317e-01 1.035085e-19
1.101817e-01 1.080933e-19
1.104317e-01 7.794993e-20
1.106817e-01 1.824475e-20
1.109317e-01 -5.547871e-20
1.111817e-01 -1.209929e-19
1.114317e-01 -1.557672e-19
1.116817e-01 -1.443070e-19
1.119317e-01 -8.416963e-20
1.121817e-01 1.148925e-20
1.124317e-01 1.161406e-19
1.126817e-01 1.967828e-19
1.129317e-01 2.238805e-19
1.131817e-01 1.814875e-19
1.134317e-01 7.426232e-20
1.136817e-01 -7.133400e-20
1.139317e-01 -2.128160e-19
1.141817e-01 -3.034561e-19
1.144317e-01 -3.070031e-19
1.146817e-01 -2.109028e-19
1.149317e-01 -3.349877e-20
1.151817e-01 1.779293e-19
1.154317e-01 3.588426e-19
1.156817e-01 4.462811e-19
1.159317e-01 3.996276e-19
1.161817e-01 2.167617e-19
1.164317e-01 -6.027717e-20
1.166817e-01 -3.533201e-19
1.169317e-01 -5.689329e-19
1.171817e-01 -6.269436e-19
1.174317e-01 -4.882965e-19
1.176817e-01 -1.730456e-19
1.179317e-01 2.386459e-19
1.181817e-01 6.249943e-19
1.184317e-01 8.570139e-19
1.186817e-01 8.396491e-19
1.189317e-01 5.470461e-19
1.191817e-01 3.971301e-20
1.194317e-01 -5.443151e-19
1.196817e-01 -1.024697e-18
1.199317e-01 -1.232217e-18
1.201817e-01 -1.065279e-18
1.204317e-01 -5.314388e-19
1.206817e-01 2.414530e-19
1.209317e-01 1.031897e-18
1.211817e-01 1.585203e-18
1.214317e-01 1.692255e-18
1.216817e-01 1.263170e-18
1.219317e-01 3.712573e-19
1.221817e-01 -7.507410e-19
1.224317e-01 -1.766738e-18
1.226817e-01 -2.333904e-18
1.229317e-01 -2.213285e-18
1.231817e-01 -1.360156e-18
1.234317e-01 3.778199e-20
1.236817e-01 1.593128e-18
1.239317e-01 2.820399e-18
1.241817e-01 3.281854e-18
1.244317e-01 2.735417e-18
1.246817e-01 1.236889e-18
1.249317e-01 -8.423304e-19
1.251817e-01 -2.897905e-18
1.254317e-01 -4.260791e-18
1.256817e-01 -4.406613e-18
1.259317e-01 -3.143072e-18
1.261817e-01 -7.118677e-19
1.264317e-01 2.238113e-18
1.266817e-01 4.812953e-18
1.269317e-01 6.134578e-18
1.271817e-01 5.627290e-18
1.274317e-01 3.240045e-18
1.276817e-01 -4.753211e-19
1.279317e-01 -4.472159e-18
1.281817e-01 -7.490182e-18
1.284317e-01 -8.438790e-18
1.286817e-01 -6.770113e-18
1.289317e-01 -2.719617e-18
1.291817e-01 2.679175e-18
1.294317e-01 7.836813e-18
1.296817e-01 1.105815e-17
1.299317e-01 1.107883e-17
1.301817e-01 7.524043e-18
1.304317e-01 1.132039e-18
1.306817e-01 -6.357050e-18
1.309317e-01 -1.264944e-17
1.311817e-01 -1.557636e-17
1.314317e-01 -1.380957e-17
1.316817e-01 -7.386461e-18
1.319317e-01 2.147077e-18
1.321817e-01 1.206552e-17
1.324317e-01 1.921123e-17
1.326817e-01 2.096608e-17
1.329317e-01 1.615804e-17
1.331817e-01 5.602181e-18
1.334317e-01 -7.939909e-18
1.336817e-01 -2.043434e-17
1.339317e-01 -2.773542e-17
1.341817e-01 -2.691175e-17
1.344317e-01 -1.732726e-17
1.346817e-01 -1.101129e-18
1.349317e-01 1.727132e-17
1.351817e-01 3.210668e-17
1.354317e-01 3.823616e-17
1.356817e-01 3.272942e-17
1.359317e-01 1.608521e-17
1.361817e-01 -7.553989e-18
1.364317e-01 -3.133966e-17
1.366817e-01 -4.763000e-17
1.369317e-01 -5.036689e-17
1.371817e-01 -3.720026e-17
1.374317e-01 -1.064697e-17
1.376817e-01 2.219403e-17
1.379317e-01 5.143444e-17
1.381817e-01 6.728136e-17
1.384317e-01 6.320159e-17
1.386817e-01 3.837451e-17
1.389317e-01 -1.432705e-18
1.391817e-01 -4.501866e-17
1.394317e-01 -7.877461e-17
1.396817e-01 -9.080831e-17
1.399317e-01 -7.495265e-17
1.401817e-01 -3.335571e-17
1.404317e-01 2.333259e-17
1.406817e-01 7.849029e-17
1.409317e-01 1.142413e-16