-0.400000 1.991732e-05
-0.397000 2.953779e-05
-0.394000 3.852506e-05
-0.391000 4.673645e-05
-0.388000 5.404550e-05
-0.385000 6.034404e-05
-0.382000 6.554388e-05
-0.379000 6.957804e-05
-0.376000 7.240151e-05
-0.373000 7.399164e-05
-0.370000 7.434803e-05
-0.367000 7.349200e-05
-0.364000 7.146564e-05
-0.361000 6.833053e-05
-0.358000 6.416603e-05
-0.355000 5.906734e-05
-0.352000 5.314332e-05
-0.349000 4.651402e-05
-0.346000 3.930818e-05
-0.343000 3.166055e-05
-0.340000 2.370929e-05
-0.337000 1.559324e-05
-0.334000 7.449450e-06
-0.331000 -5.893089e-07
-0.328000 -8.396769e-06
-0.325000 -1.585522e-05
-0.322000 -2.285729e-05
-0.319000 -2.930748e-05
-0.316000 -3.512337e-05
-0.313000 -4.023655e-05
-0.310000 -4.459321e-05
-0.307000 -4.815445e-05
-0.304000 -5.089625e-05
-0.301000 -5.280918e-05
-0.298000 -5.389785e-05
-0.295000 -5.418006e-05
-0.292000 -5.368582e-05
-0.289000 -5.245611e-05
-0.286000 -5.054155e-05
-0.283000 -4.800094e-05
-0.280000 -4.489971e-05
-0.277000 -4.130837e-05
-0.274000 -3.730095e-05
-0.271000 -3.295347e-05
-0.268000 -2.834245e-05
-0.265000 -2.354359e-05
-0.262000 -1.863050e-05
-0.259000 -1.367358e-05
-0.256000 -8.739080e-06
-0.253000 -3.888338e-06
-0.250000 8.228742e-07
-0.247000 5.344767e-06
-0.244000 9.633810e-06
-0.241000 1.365283e-05
-0.238000 1.737099e-05
-0.235000 2.076357e-05
-0.232000 2.381168e-05
-0.229000 2.650187e-05
-0.226000 2.882563e-05
-0.223000 3.077884e-05
-0.220000 3.236122e-05
-0.217000 3.357571e-05
-0.214000 3.442793e-05
-0.211000 3.492558e-05
-0.208000 3.507798e-05
-0.205000 3.489559e-05
-0.202000 3.438965e-05
-0.199000 3.357189e-05
-0.196000 3.245436e-05
-0.193000 3.104924e-05
-0.190000 2.936892e-05
-0.187000 2.742599e-05
-0.184000 2.523342e-05
-0.181000 2.280473e-05
-0.178000 2.015431e-05
-0.175000 1.729768e-05
-0.172000 1.425183e-05
-0.169000 1.103555e-05
-0.166000 7.669744e-06
-0.163000 4.177721e-06
-0.160000 5.854176e-07
-0.157000 -3.078418e-06
-0.154000 -6.782144e-06
-0.151000 -1.049123e-05
-0.148000 -1.416834e-05
-0.145000 -1.777360e-05
-0.142000 -2.126487e-05
-0.139000 -2.459821e-05
-0.136000 -2.772842e-05
-0.133000 -3.060973e-05
-0.130000 -3.319650e-05
-0.127000 -3.544406e-05
-0.124000 -3.730961e-05
-0.121000 -3.875310e-05
-0.118000 -3.973825e-05
-0.115000 -4.023344e-05
-0.112000 -4.021263e-05
-0.109000 -3.965625e-05
-0.106000 -3.855196e-05
-0.103000 -3.689537e-05
-0.100000 -3.469055e-05
-0.097000 -3.195053e-05
-0.094000 -2.869747e-05
-0.091000 -2.496282e-05
-0.088000 -2.078716e-05
-0.085000 -1.621996e-05
-0.082000 -1.131905e-05
-0.079000 -6.149950e-06
-0.076000 -7.850074e-07
-0.073000 4.697647e-06
-0.070000 1.021530e-05
-0.067000 1.568201e-05
-0.064000 2.101002e-05
-0.061000 2.611137e-05
-0.058000 3.089944e-05
-0.055000 3.529057e-05
-0.052000 3.920577e-05
-0.049000 4.257217e-05
-0.046000 4.532463e-05
-0.043000 4.740709e-05
-0.040000 4.877380e-05
-0.037000 4.939047e-05
-0.034000 4.923509e-05
-0.031000 4.829861e-05
-0.028000 4.658541e-05
-0.025000 4.411344e-05
-0.022000 4.091411e-05
-0.019000 3.703203e-05
-0.016000 3.252431e-05
-0.013000 2.745974e-05
-0.010000 2.191771e-05
-0.007000 1.598684e-05
-0.004000 9.763500e-06
-0.001000 3.350112e-06
0.002000 -3.146680e-06
0.005000 -9.617932e-06
0.008000 -1.595439e-05
0.011000 -2.204849e-05
0.014000 -2.779639e-05
0.017000 -3.309988e-05
0.020000 -3.786822e-05
0.023000 -4.201991e-05
0.026000 -4.548415e-05
0.029000 -4.820224e-05
0.032000 -5.012870e-05
0.035000 -5.123207e-05
0.038000 -5.149556e-05
0.041000 -5.091734e-05
0.044000 -4.951056e-05
0.047000 -4.730307e-05
0.050000 -4.433688e-05
0.053000 -4.066731e-05
0.056000 -3.636195e-05
0.059000 -3.149928e-05
0.062000 -2.616720e-05
0.065000 -2.046130e-05
0.068000 -1.448302e-05
0.071000 -8.337721e-06
0.074000 -2.132654e-06
0.077000 4.025040e-06
0.080000 1.003036e-05
0.083000 1.578238e-05
0.086000 2.118612e-05
0.089000 2.615424e-05
0.092000 3.060859e-05
0.095000 3.448156e-05
0.098000 3.771721e-05
0.101000 4.027212e-05
0.104000 4.211602e-05
0.107000 4.323214e-05
0.110000 4.361729e-05
0.113000 4.328163e-05
0.116000 4.224821e-05
0.119000 4.055229e-05
0.122000 3.824036e-05
0.125000 3.536900e-05
0.128000 3.200354e-05
0.131000 2.821658e-05
0.134000 2.408638e-05
0.137000 1.969519e-05
0.140000 1.512753e-05
0.143000 1.046843e-05
0.146000 5.801763e-06
0.149000 1.208616e-06
0.152000 -3.234264e-06
0.155000 -7.455850e-06
0.158000 -1.139208e-05
0.161000 -1.498691e-05
0.164000 -1.819316e-05
0.167000 -2.097317e-05
0.170000 -2.329918e-05
0.173000 -2.515357e-05
0.176000 -2.652874e-05
0.179000 -2.742688e-05
0.182000 -2.785953e-05
0.185000 -2.784684e-05
0.188000 -2.741679e-05
0.191000 -2.660413e-05
0.194000 -2.544937e-05
0.197000 -2.399745e-05
0.200000 -2.229659e-05
0.203000 -2.039689e-05
0.206000 -1.834912e-05
0.209000 -1.620341e-05
0.212000 -1.400805e-05
0.215000 -1.180844e-05
0.218000 -9.646028e-06
0.221000 -7.557519e-06
0.224000 -5.574161e-06
0.227000 -3.721231e-06
0.230000 -2.017698e-06
0.233000 -4.760731e-07
0.236000 8.975578e-07
0.239000 2.103314e-06
0.242000 3.147134e-06
0.245000 4.040223e-06
0.248000 4.798368e-06
0.251000 5.441126e-06
0.254000 5.990911e-06
0.257000 6.472028e-06
0.260000 6.909641e-06
0.263000 7.328746e-06
0.266000 7.753151e-06
0.269000 8.204503e-06
0.272000 8.701381e-06
0.275000 9.258497e-06
0.278000 9.886009e-06
0.281000 1.058898e-05
0.284000 1.136698e-05
0.287000 1.221389e-05
0.290000 1.311785e-05
0.293000 1.406140e-05
0.296000 1.502180e-05
0.299000 1.597154e-05
0.302000 1.687898e-05
0.305000 1.770920e-05
0.308000 1.842487e-05
0.311000 1.898736e-05
0.314000 1.935785e-05
0.317000 1.949849e-05
0.320000 1.937363e-05
0.323000 1.895102e-05
0.326000 1.820296e-05
0.329000 1.710737e-05
0.332000 1.564884e-05
0.335000 1.381943e-05
0.338000 1.161941e-05
0.341000 9.057792e-06
0.344000 6.152646e-06
0.347000 2.931250e-06
0.350000 -5.700167e-07
0.353000 -4.305985e-06
0.356000 -8.223242e-06
0.359000 -1.226088e-05
0.362000 -1.635149e-05
0.365000 -2.042228e-05
0.368000 -2.439643e-05
0.371000 -2.819459e-05
0.374000 -3.173642e-05
0.377000 -3.494231e-05
0.380000 -3.773510e-05
0.383000 -4.004181e-05
0.386000 -4.179535e-05
0.389000 -4.293620e-05
0.392000 -4.341392e-05
0.395000 -4.318862e-05
0.398000 -4.223212e-05
0.401000 -4.052907e-05
0.404000 -3.807769e-05
0.407000 -3.489036e-05
0.410000 -3.099385e-05
0.413000 -2.642937e-05
0.416000 -2.125222e-05
0.419000 -1.553122e-05
0.422000 -9.347781e-06
0.425000 -2.794789e-06
0.428000 4.024868e-06
0.431000 1.099995e-05
0.434000 1.801274e-05
0.437000 2.494112e-05
0.440000 3.166076e-05
0.443000 3.804741e-05
0.446000 4.397926e-05
0.449000 4.933930e-05
0.452000 5.401765e-05
0.455000 5.791381e-05
0.458000 6.093876e-05
0.461000 6.301693e-05
0.464000 6.408789e-05
0.467000 6.410786e-05
0.470000 6.305087e-05
0.473000 6.090966e-05
0.476000 5.769622e-05
0.479000 5.344194e-05
0.482000 4.819749e-05
0.485000 4.203224e-05
0.488000 3.503338e-05
0.491000 2.730466e-05
0.494000 1.896481e-05
0.497000 1.014566e-05
0.500000 9.899903e-07
0.503000 -8.350897e-06
0.506000 -1.771974e-05
0.509000 -2.695608e-05
0.512000 -3.589908e-05
0.515000 -4.439044e-05
0.518000 -5.227726e-05
0.521000 -5.941489e-05
0.524000 -6.566961e-05
0.527000 -7.092120e-05
0.530000 -7.506526e-05
0.533000 -7.801529e-05
0.536000 -7.970446e-05
0.539000 -8.008703e-05
0.542000 -7.913946e-05
0.545000 -7.686103e-05
0.548000 -7.327417e-05
0.551000 -6.842426e-05
0.554000 -6.237913e-05
0.557000 -5.522805e-05
0.560000 -4.708039e-05
0.563000 -3.806388e-05
0.566000 -2.832252e-05
0.569000 -1.801420e-05
0.572000 -7.308073e-06
0.575000 3.618385e-06
0.578000 1.458237e-05
0.581000 2.539892e-05
0.584000 3.588417e-05
0.587000 4.585853e-05
0.590000 5.514989e-05
0.593000 6.359664e-05
0.596000 7.105060e-05
0.599000 7.737962e-05
0.602000 8.247003e-05
0.605000 8.622867e-05
0.608000 8.858466e-05
0.611000 8.949068e-05
0.614000 8.892393e-05
0.617000 8.688661e-05
0.620000 8.340602e-05
0.623000 7.853410e-05
0.626000 7.234669e-05
0.629000 6.494227e-05
0.632000 5.644028e-05
0.635000 4.697917e-05
0.638000 3.671403e-05
0.641000 2.581395e-05
0.644000 1.445914e-05
0.647000 2.837834e-06
0.650000 -8.856907e-06
0.653000 -2.043053e-05
0.656000 -3.169033e-05
0.659000 -4.244873e-05
0.662000 -5.252651e-05
0.665000 -6.175588e-05
0.668000 -6.998333e-05
0.671000 -7.707225e-05
0.674000 -8.290525e-05
0.677000 -8.738616e-05
0.680000 -9.044159e-05
0.683000 -9.202219e-05
0.686000 -9.210342e-05
0.689000 -9.068592e-05
0.692000 -8.779545e-05
0.695000 -8.348235e-05
0.698000 -7.782066e-05
0.701000 -7.090674e-05
0.704000 -6.285760e-05
0.707000 -5.380880e-05
0.710000 -4.391212e-05
0.713000 -3.333291e-05
0.716000 -2.224722e-05
0.719000 -1.083878e-05
0.722000 7.041220e-07
0.725000 1.219187e-05
0.728000 2.343669e-05
0.731000 3.425585e-05
0.734000 4.447467e-05
0.737000 5.392942e-05
0.740000 6.247000e-05
0.743000 6.996240e-05
0.746000 7.629080e-05
0.749000 8.135938e-05
0.752000 8.509384e-05
0.755000 8.744238e-05
0.758000 8.837648e-05
0.761000 8.789113e-05
0.764000 8.600471e-05
0.767000 8.275854e-05
0.770000 7.821588e-05
0.773000 7.246078e-05
0.776000 6.559640e-05
0.779000 5.774312e-05
0.782000 4.903639e-05
0.785000 3.962430e-05
0.788000 2.966495e-05
0.791000 1.932380e-05
0.794000 8.770735e-06
0.797000 -1.822724e-06
0.800000 -1.228632e-05
0.803000 -2.245386e-05
0.806000 -3.216591e-05
0.809000 -4.127234e-05
0.812000 -4.963472e-05
0.815000 -5.712840e-05
0.818000 -6.364441e-05
0.821000 -6.909107e-05
0.824000 -7.339518e-05
0.827000 -7.650303e-05
0.830000 -7.838096e-05
0.833000 -7.901563e-05
0.836000 -7.841390e-05
0.839000 -7.660244e-05
0.842000 -7.362694e-05
0.845000 -6.955109e-05
0.848000 -6.445520e-05
0.851000 -5.843462e-05
0.854000 -5.159793e-05
0.857000 -4.406493e-05
0.860000 -3.596449e-05
0.863000 -2.743227e-05
0.866000 -1.860840e-05
0.869000 -9.635113e-06
0.872000 -6.543937e-07
0.875000 8.194315e-06
0.878000 1.677632e-05
0.881000 2.496378e-05
0.884000 3.263757e-05
0.887000 3.968911e-05
0.890000 4.602180e-05
0.893000 5.155236e-05
0.896000 5.621184e-05
0.899000 5.994643e-05
0.902000 6.271794e-05
0.905000 6.450404e-05
0.908000 6.529825e-05
0.911000 6.510964e-05
0.914000 6.396226e-05
0.917000 6.189444e-05
0.920000 5.895774e-05
0.923000 5.521580e-05
0.926000 5.074301e-05
0.929000 4.562301e-05
0.932000 3.994714e-05
0.935000 3.381274e-05
0.938000 2.732145e-05
0.941000 2.057752e-05
0.944000 1.368605e-05
0.947000 6.751321e-06
0.950000 -1.247685e-07
0.953000 -6.844243e-06
0.956000 -1.331443e-05
0.959000 -1.944923e-05
0.962000 -2.517018e-05
0.965000 -3.040744e-05
0.968000 -3.510053e-05
0.971000 -3.919892e-05
0.974000 -4.266239e-05
0.977000 -4.546131e-05
0.980000 -4.757662e-05
0.983000 -4.899971e-05
0.986000 -4.973212e-05
0.989000 -4.978509e-05
0.992000 -4.917898e-05
0.995000 -4.794256e-05
0.998000 -4.611221e-05
1.001000 -4.373103e-05
1.004000 -4.084791e-05
1.007000 -3.751653e-05
1.010000 -3.379435e-05
1.013000 -2.974161e-05
1.016000 -2.542031e-05
1.019000 -2.089328e-05
1.022000 -1.622321e-05
1.025000 -1.147186e-05
1.028000 -6.699214e-06
1.031000 -1.962795e-06
1.034000 2.682940e-06
1.037000 7.187134e-06
1.040000 1.150296e-05
1.043000 1.558794e-05
1.046000 1.940420e-05
1.049000 2.291862e-05
1.052000 2.610287e-05
1.055000 2.893342e-05
1.058000 3.139144e-05
1.061000 3.346268e-05
1.064000 3.513724e-05
1.067000 3.640935e-05
1.070000 3.727712e-05
1.073000 3.774222e-05
1.076000 3.780962e-05
1.079000 3.748730e-05
1.082000 3.678592e-05
1.085000 3.571860e-05
1.088000 3.430065e-05
1.091000 3.254934e-05
1.094000 3.048373e-05
1.097000 2.812451e-05
1.100000 2.549384e-05
1.103000 2.261528e-05
1.106000 1.951371e-05
1.109000 1.621527e-05
1.112000 1.274736e-05
1.115000 9.138558e-06
1.118000 5.418686e-06
1.121000 1.618729e-06
1.124000 -2.229157e-06
1.127000 -6.091702e-06
1.130000 -9.934583e-06
1.133000 -1.372252e-05
1.136000 -1.741943e-05
1.139000 -2.098858e-05
1.142000 -2.439281e-05
1.145000 -2.759482e-05
1.148000 -3.055749e-05
1.151000 -3.324423e-05
1.154000 -3.561941e-05
1.157000 -3.764880e-05
1.160000 -3.930010e-05
1.163000 -4.054341e-05
1.166000 -4.135181e-05
1.169000 -4.170190e-05
1.172000 -4.157437e-05
1.175000 -4.095450e-05
1.178000 -3.983274e-05
1.181000 -3.820513e-05
1.184000 -3.607374e-05
1.187000 -3.344706e-05
1.190000 -3.034026e-05
1.193000 -2.677539e-05
1.196000 -2.278147e-05
1.199000 -1.839451e-05
1.202000 -1.365735e-05
1.205000 -8.619432e-06
1.208000 -3.336425e-06
1.211000 2.130267e-06
1.214000 7.714125e-06
1.217000 1.334425e-05
1.220000 1.894622e-05
1.223000 2.444303e-05
1.226000 2.975614e-05
1.229000 3.480660e-05
1.232000 3.951625e-05
1.235000 4.380892e-05
1.238000 4.761167e-05
1.241000 5.085610e-05
1.244000 5.347952e-05
1.247000 5.542620e-05
1.250000 5.664845e-05
1.253000 5.710770e-05
1.256000 5.677543e-05
1.259000 5.563395e-05
1.262000 5.367711e-05
1.265000 5.091076e-05
1.268000 4.735306e-05
1.271000 4.303465e-05
1.274000 3.799856e-05
1.277000 3.229991e-05
1.280000 2.600547e-05
1.283000 1.919293e-05
1.286000 1.195004e-05
1.289000 4.373533e-06
1.292000 -3.432158e-06
1.295000 -1.135631e-05
1.298000 -1.928347e-05
1.301000 -2.709517e-05
1.304000 -3.467166e-05
1.307000 -4.189385e-05
1.310000 -4.864512e-05
1.313000 -5.481326e-05
1.316000 -6.029237e-05
1.319000 -6.498467e-05
1.322000 -6.880224e-05
1.325000 -7.166866e-05
1.328000 -7.352049e-05
1.331000 -7.430854e-05
1.334000 -7.399900e-05
1.337000 -7.257432e-05
1.340000 -7.003381e-05
1.343000 -6.639403e-05
1.346000 -6.168890e-05
1.349000 -5.596947e-05
1.352000 -4.930351e-05
1.355000 -4.177471e-05
1.358000 -3.348169e-05
1.361000 -2.453670e-05
1.364000 -1.506405e-05
1.367000 -5.198408e-06
1.370000 4.917226e-06
1.373000 1.513364e-05
1.376000 2.529772e-05
1.379000 3.525482e-05
1.382000 4.485126e-05
1.385000 5.393681e-05
1.388000 6.236722e-05
1.391000 7.000661e-05
1.394000 7.672991e-05
1.397000 8.242502e-05
1.400000 8.699490e-05
1.403000 9.035947e-05
1.406000 9.245719e-05
1.409000 9.324641e-05
1.412000 9.270651e-05
1.415000 9.083858e-05
1.418000 8.766587e-05
1.421000 8.323390e-05
1.424000 7.761013e-05
1.427000 7.088341e-05
1.430000 6.316298e-05
1.433000 5.457720e-05
1.436000 4.527191e-05
1.439000 3.540855e-05
1.442000 2.516199e-05
1.445000 1.471808e-05
1.448000 4.271081e-06
1.451000 -5.979155e-06
1.454000 -1.583005e-05
1.457000 -2.507931e-05
1.460000 -3.352789e-05
1.463000 -4.098305e-05
1.466000 -4.726122e-05
1.469000 -5.219089e-05
1.472000 -5.561522e-05
1.475000 -5.739457e-05
1.478000 -5.740869e-05
1.481000 -5.555874e-05
1.484000 -5.176892e-05
1.487000 -4.598786e-05
1.490000 -3.818955e-05
1.493000 -2.837400e-05
1.496000 -1.656749e-05
1.499000 -2.822408e-06
1.502000 1.278322e-05
1.505000 3.014665e-05
1.508000 4.914164e-05
1.511000 6.962001e-05
1.514000 9.141355e-05
1.517000 1.143362e-04
1.520000 1.381862e-04
1.523000 1.627493e-04
1.526000 1.878008e-04
1.529000 2.131089e-04
1.532000 2.384374e-04
1.535000 2.635489e-04
1.538000 2.882075e-04
1.541000 3.121818e-04
1.544000 3.352475e-04
1.547000 3.571901e-04
1.550000 3.778073e-04
1.553000 3.969110e-04
1.556000 4.143288e-04
1.559000 4.299064e-04
1.562000 4.435080e-04
1.565000 4.550173e-04
1.568000 4.643385e-04
1.571000 4.713958e-04
1.574000 4.761335e-04
1.577000 4.785157e-04
1.580000 4.785250e-04
1.583000 4.761616e-04
1.586000 4.714418e-04
1.589000 4.643965e-04
1.592000 4.550690e-04
1.595000 4.435132e-04
1.598000 4.297917e-04
1.601000 4.139731e-04
1.604000 3.961301e-04
1.607000 3.763375e-04
1.610000 3.546699e-04
1.613000 3.311999e-04
1.616000 3.059962e-04
1.619000 2.791224e-04
1.622000 2.506354e-04
1.625000 2.205848e-04
1.628000 1.890122e-04
1.631000 1.559509e-04
1.634000 1.214259e-04
1.637000 8.545474e-05
1.640000 4.804812e-05
1.643000 9.211237e-06
1.646000 -3.105463e-05
1.649000 -7.275021e-05
1.652000 -1.158760e-04
1.655000 -1.604297e-04
1.658000 -2.064036e-04
1.661000 -2.537819e-04
1.664000 -3.025374e-04
1.667000 -3.526285e-04
1.670000 -4.039966e-04
1.673000 -4.565629e-04
1.676000 -5.102257e-04
1.679000 -5.648577e-04
1.682000 -6.203042e-04
1.685000 -6.763809e-04
1.688000 -7.328724e-04
1.691000 -7.895314e-04
1.694000 -8.460781e-04
1.697000 -9.022002e-04
1.700000 -9.575540e-04
1.703000 -1.011765e-03
1.706000 -1.064430e-03
1.709000 -1.115121e-03
1.712000 -1.163386e-03
1.715000 -1.208755e-03
1.718000 -1.250743e-03
1.721000 -1.288856e-03
1.724000 -1.322594e-03
1.727000 -1.351462e-03
1.730000 -1.374970e-03
1.733000 -1.392645e-03
1.736000 -1.404035e-03
1.739000 -1.408714e-03
1.742000 -1.406295e-03
1.745000 -1.396429e-03
1.748000 -1.378819e-03
1.751000 -1.353220e-03
1.754000 -1.319450e-03
1.757000 -1.277393e-03
1.760000 -1.227002e-03
1.763000 -1.168307e-03
1.766000 -1.101417e-03
1.769000 -1.026520e-03
1.772000 -9.438866e-04
1.775000 -8.538720e-04
1.778000 -7.569124e-04
1.781000 -6.535256e-04
1.784000 -5.443073e-04
1.787000 -4.299280e-04
1.790000 -3.111282e-04
1.793000 -1.887124e-04
1.796000 -6.354229e-05
1.799000 6.347049e-05
1.802000 1.913733e-04
1.805000 3.191817e-04
1.808000 4.458892e-04
1.811000 5.704778e-04
1.814000 6.919290e-04
1.817000 8.092350e-04
1.820000 9.214098e-04
1.823000 1.027501e-03
1.826000 1.126599e-03
1.829000 1.217851e-03
1.832000 1.300471e-03
1.835000 1.373744e-03
1.838000 1.437044e-03
1.841000 1.489835e-03
1.844000 1.531681e-03
1.847000 1.562254e-03
1.850000 1.581332e-03
1.853000 1.588812e-03
1.856000 1.584705e-03
1.859000 1.569139e-03
1.862000 1.542359e-03
1.865000 1.504724e-03
1.868000 1.456704e-03
1.871000 1.398874e-03
1.874000 1.331909e-03
1.877000 1.256576e-03
1.880000 1.173724e-03
1.883000 1.084275e-03
1.886000 9.892131e-04
1.889000 8.895732e-04
1.892000 7.864273e-04
1.895000 6.808723e-04
1.898000 5.740170e-04
1.901000 4.669682e-04
1.904000 3.608173e-04
1.907000 2.566278e-04
1.910000 1.554214e-04
1.913000 5.816689e-05
1.916000 -3.423204e-05
1.919000 -1.209471e-04
1.922000 -2.012347e-04
1.925000 -2.744448e-04
1.928000 -3.400273e-04
1.931000 -3.975381e-04
1.934000 -4.466428e-04
1.937000 -4.871199e-04
1.940000 -5.188611e-04
1.943000 -5.418714e-04
1.946000 -5.562665e-04
1.949000 -5.622697e-04
1.952000 -5.602062e-04
1.955000 -5.504972e-04
1.958000 -5.336521e-04
1.961000 -5.102594e-04
1.964000 -4.809770e-04
1.967000 -4.465216e-04
1.970000 -4.076572e-04
1.973000 -3.651832e-04
1.976000 -3.199223e-04
1.979000 -2.727081e-04
1.982000 -2.243728e-04
1.985000 -1.757351e-04
1.988000 -1.275886e-04
1.991000 -8.069080e-05
1.994000 -3.575274e-05
1.997000 6.570515e-06
2.000000 4.568815e-05
2.003000 8.108090e-05
2.006000 1.123071e-04
2.009000 1.390073e-04
2.012000 1.609077e-04
2.015000 1.778223e-04
2.018000 1.896531e-04
2.021000 1.963895e-04
2.024000 1.981060e-04
2.027000 1.949589e-04
2.030000 1.871816e-04
2.033000 1.750786e-04
2.036000 1.590188e-04
2.039000 1.394279e-04
2.042000 1.167798e-04
2.045000 9.158757e-05
2.048000 6.439406e-05
2.051000 3.576198e-05
2.054000 6.264121e-06
2.057000 -2.352655e-05
2.060000 -5.304650e-05
2.063000 -8.175096e-05
2.066000 -1.091226e-04
2.069000 -1.346800e-04
2.072000 -1.579844e-04
2.075000 -1.786469e-04
2.078000 -1.963337e-04
2.081000 -2.107706e-04
2.084000 -2.217463e-04
2.087000 -2.291150e-04
2.090000 -2.327974e-04
2.093000 -2.327805e-04
2.096000 -2.291168e-04
2.099000 -2.219217e-04
2.102000 -2.113704e-04
2.105000 -1.976936e-04
2.108000 -1.811728e-04
2.111000 -1.621335e-04
2.114000 -1.409396e-04
2.117000 -1.179857e-04
2.120000 -9.369005e-05
2.123000 -6.848649e-05
2.126000 -4.281670e-05
2.129000 -1.712234e-05
2.132000 8.162657e-06
2.135000 3.261956e-05
2.138000 5.585182e-05
2.141000 7.749159e-05
2.144000 9.720563e-05
2.147000 1.147004e-04
2.150000 1.297265e-04
2.153000 1.420819e-04
2.156000 1.516151e-04
2.159000 1.582259e-04
2.162000 1.618669e-04
2.165000 1.625428e-04
2.168000 1.603093e-04
2.171000 1.552709e-04
2.174000 1.475782e-04
2.177000 1.374241e-04
2.180000 1.250396e-04
2.183000 1.106885e-04
2.186000 9.466246e-05
2.189000 7.727474e-05
2.192000 5.885446e-05
2.195000 3.974030e-05
2.198000 2.027428e-05
2.201000 7.956149e-07
2.204000 -1.836515e-05
2.207000 -3.689177e-05
2.210000 -5.448752e-05
2.213000 -7.087985e-05
2.216000 -8.582451e-05
2.219000 -9.910907e-05
2.222000 -1.105557e-04
2.225000 -1.200232e-04
2.228000 -1.274086e-04
2.231000 -1.326472e-04
2.234000 -1.357132e-04
2.237000 -1.366181e-04
2.240000 -1.354098e-04
2.243000 -1.321703e-04
2.246000 -1.270126e-04
2.249000 -1.200783e-04
2.252000 -1.115336e-04
2.255000 -1.015654e-04
2.258000 -9.037732e-05
2.261000 -7.818553e-05
2.264000 -6.521433e-05
2.267000 -5.169197e-05
2.270000 -3.784651e-05
2.273000 -2.390191e-05
2.276000 -1.007437e-05
2.279000 3.431013e-06
2.282000 1.642316e-05
2.285000 2.872757e-05
2.288000 4.018837e-05
2.291000 5.066992e-05
2.294000 6.005799e-05
2.297000 6.826037e-05
2.300000 7.520715e-05
2.303000 8.085046e-05
2.306000 8.516390e-05
2.309000 8.814156e-05
2.312000 8.979678e-05
2.315000 9.016062e-05
2.318000 8.928018e-05
2.321000 8.721669e-05
2.324000 8.404360e-05
2.327000 7.984458e-05
2.330000 7.471155e-05
2.333000 6.874278e-05
2.336000 6.204104e-05
2.339000 5.471195e-05
2.342000 4.686247e-05
2.345000 3.859949e-05
2.348000 3.002871e-05
2.351000 2.125369e-05
2.354000 1.237502e-05
2.357000 3.489773e-06
2.360000 -5.308972e-06
2.363000 -1.393241e-05
2.366000 -2.229619e-05
2.369000 -3.032050e-05
2.372000 -3.793012e-05
2.375000 -4.505439e-05
2.378000 -5.162721e-05
2.381000 -5.758710e-05
2.384000 -6.287723e-05
2.387000 -6.744558e-05
2.390000 -7.124513e-05
2.393000 -7.423423e-05
2.396000 -7.637693e-05
2.399000 -7.764352e-05
2.402000 -7.801111e-05
2.405000 -7.746423e-05
2.408000 -7.599552e-05
2.411000 -7.360648e-05
2.414000 -7.030808e-05
2.417000 -6.612148e-05
2.420000 -6.107855e-05
2.423000 -5.522232e-05
2.426000 -4.860734e-05
2.429000 -4.129976e-05
2.432000 -3.337727e-05
2.435000 -2.492882e-05
2.438000 -1.605400e-05
2.441000 -6.862292e-06
2.444000 2.528062e-06
2.447000 1.199139e-05
2.450000 2.139621e-05
2.453000 3.060704e-05
2.456000 3.948647e-05
2.459000 4.789738e-05
2.462000 5.570528e-05
2.465000 6.278076e-05
2.468000 6.900198e-05
2.471000 7.425709e-05
2.474000 7.844665e-05
2.477000 8.148583e-05
2.480000 8.330649e-05
2.483000 8.385898e-05
2.486000 8.311361e-05
2.489000 8.106186e-05
2.492000 7.771708e-05
2.495000 7.311495e-05
2.498000 6.731331e-05
2.501000 6.039170e-05
2.504000 5.245036e-05
2.507000 4.360884e-05
2.510000 3.400415e-05
2.513000 2.378856e-05
2.516000 1.312701e-05
2.519000 2.194222e-06
2.522000 -8.828381e-06
2.525000 -1.975601e-05
2.528000 -3.040394e-05
2.531000 -4.059095e-05
2.534000 -5.014276e-05
2.537000 -5.889539e-05
2.540000 -6.669830e-05
2.543000 -7.341730e-05
2.546000 -7.893716e-05
2.549000 -8.316385e-05
2.552000 -8.602638e-05
2.555000 -8.747816e-05
2.558000 -8.749789e-05
2.561000 -8.608997e-05
2.564000 -8.328433e-05
2.567000 -7.913586e-05
2.570000 -7.372324e-05
2.573000 -6.714733e-05
2.576000 -5.952922e-05
2.579000 -5.100774e-05
2.582000 -4.173676e-05
2.585000 -3.188212e-05
2.588000 -2.161846e-05
2.591000 -1.112579e-05
2.594000 -5.860821e-07
2.597000 9.820169e-06
