-0.400000 -6.064874e-04
-0.397000 -6.066916e-04
-0.394000 -6.077220e-04
-0.391000 -6.093971e-04
-0.388000 -6.115211e-04
-0.385000 -6.138876e-04
-0.382000 -6.162836e-04
-0.379000 -6.184933e-04
-0.376000 -6.203031e-04
-0.373000 -6.215055e-04
-0.370000 -6.219036e-04
-0.367000 -6.213157e-04
-0.364000 -6.195786e-04
-0.361000 -6.165521e-04
-0.358000 -6.121217e-04
-0.355000 -6.062020e-04
-0.352000 -5.987383e-04
-0.349000 -5.897088e-04
-0.346000 -5.791255e-04
-0.343000 -5.670344e-04
-0.340000 -5.535151e-04
-0.337000 -5.386799e-04
-0.334000 -5.226721e-04
-0.331000 -5.056632e-04
-0.328000 -4.878503e-04
-0.325000 -4.694520e-04
-0.322000 -4.507047e-04
-0.319000 -4.318580e-04
-0.316000 -4.131695e-04
-0.313000 -3.949004e-04
-0.310000 -3.773095e-04
-0.307000 -3.606489e-04
-0.304000 -3.451579e-04
-0.301000 -3.310590e-04
-0.298000 -3.185529e-04
-0.295000 -3.078145e-04
-0.292000 -2.989890e-04
-0.289000 -2.921893e-04
-0.286000 -2.874932e-04
-0.283000 -2.849421e-04
-0.280000 -2.845398e-04
-0.277000 -2.862527e-04
-0.274000 -2.900105e-04
-0.271000 -2.957077e-04
-0.268000 -3.032059e-04
-0.265000 -3.123370e-04
-0.262000 -3.229071e-04
-0.259000 -3.347007e-04
-0.256000 -3.474860e-04
-0.253000 -3.610204e-04
-0.250000 -3.750562e-04
-0.247000 -3.893469e-04
-0.244000 -4.036534e-04
-0.241000 -4.177505e-04
-0.238000 -4.314332e-04
-0.235000 -4.445226e-04
-0.232000 -4.568722e-04
-0.229000 -4.683725e-04
-0.226000 -4.789570e-04
-0.223000 -4.886056e-04
-0.220000 -4.973490e-04
-0.217000 -5.052714e-04
-0.214000 -5.125130e-04
-0.211000 -5.192714e-04
-0.208000 -5.258022e-04
-0.205000 -5.324195e-04
-0.202000 -5.394945e-04
-0.199000 -5.474547e-04
-0.196000 -5.567810e-04
-0.193000 -5.680058e-04
-0.190000 -5.817091e-04
-0.187000 -5.985152e-04
-0.184000 -6.190888e-04
-0.181000 -6.441302e-04
-0.178000 -6.743718e-04
-0.175000 -7.105728e-04
-0.172000 -7.535158e-04
-0.169000 -8.040019e-04
-0.166000 -8.628474e-04
-0.163000 -9.308797e-04
-0.160000 -1.008935e-03
-0.157000 -1.097855e-03
-0.154000 -1.198485e-03
-0.151000 -1.311673e-03
-0.148000 -1.438268e-03
-0.145000 -1.579117e-03
-0.142000 -1.735073e-03
-0.139000 -1.906987e-03
-0.136000 -2.095711e-03
-0.133000 -2.302105e-03
-0.130000 -2.527031e-03
-0.127000 -2.771359e-03
-0.124000 -3.035969e-03
-0.121000 -3.321749e-03
-0.118000 -3.629601e-03
-0.115000 -3.960441e-03
-0.112000 -4.315195e-03
-0.109000 -4.694807e-03
-0.106000 -5.100230e-03
-0.103000 -5.532430e-03
-0.100000 -5.992379e-03
-0.097000 -6.481055e-03
-0.094000 -6.999432e-03
-0.091000 -7.548478e-03
-0.088000 -8.129143e-03
-0.085000 -8.742351e-03
-0.082000 -9.388991e-03
-0.079000 -1.006990e-02
-0.076000 -1.078585e-02
-0.073000 -1.153755e-02
-0.070000 -1.232558e-02
-0.067000 -1.315045e-02
-0.064000 -1.401250e-02
-0.061000 -1.491194e-02
-0.058000 -1.584880e-02
-0.055000 -1.682292e-02
-0.052000 -1.783392e-02
-0.049000 -1.888119e-02
-0.046000 -1.996387e-02
-0.043000 -2.108080e-02
-0.040000 -2.223053e-02
-0.037000 -2.341130e-02
-0.034000 -2.462101e-02
-0.031000 -2.585720e-02
-0.028000 -2.711704e-02
-0.025000 -2.839733e-02
-0.022000 -2.969446e-02
-0.019000 -3.100445e-02
-0.016000 -3.232288e-02
-0.013000 -3.364494e-02
-0.010000 -3.496540e-02
-0.007000 -3.627863e-02
-0.004000 -3.757862e-02
-0.001000 -3.885893e-02
0.002000 -4.011279e-02
0.005000 -4.133306e-02
0.008000 -4.251225e-02
0.011000 -4.364259e-02
0.014000 -4.471602e-02
0.017000 -4.572423e-02
0.020000 -4.665872e-02
0.023000 -4.751080e-02
0.026000 -4.827169e-02
0.029000 -4.893250e-02
0.032000 -4.948434e-02
0.035000 -4.991835e-02
0.038000 -5.022575e-02
0.041000 -5.039790e-02
0.044000 -5.042637e-02
0.047000 -5.030302e-02
0.050000 -5.002000e-02
0.053000 -4.956991e-02
0.056000 -4.894578e-02
0.059000 -4.814119e-02
0.062000 -4.715030e-02
0.065000 -4.596794e-02
0.068000 -4.458969e-02
0.071000 -4.301188e-02
0.074000 -4.123173e-02
0.077000 -3.924734e-02
0.080000 -3.705780e-02
0.083000 -3.466318e-02
0.086000 -3.206464e-02
0.089000 -2.926444e-02
0.092000 -2.626597e-02
0.095000 -2.307378e-02
0.098000 -1.969364e-02
0.101000 -1.613251e-02
0.104000 -1.239857e-02
0.107000 -8.501244e-03
0.110000 -4.451146e-03
0.113000 -2.601066e-04
0.116000 4.058868e-03
0.119000 8.491628e-03
0.122000 1.302292e-02
0.125000 1.763642e-02
0.128000 2.231484e-02
0.131000 2.703996e-02
0.134000 3.179269e-02
0.137000 3.655322e-02
0.140000 4.130105e-02
0.143000 4.601515e-02
0.146000 5.067402e-02
0.149000 5.525587e-02
0.152000 5.973868e-02
0.155000 6.410040e-02
0.158000 6.831903e-02
0.161000 7.237281e-02
0.164000 7.624032e-02
0.167000 7.990068e-02
0.170000 8.333364e-02
0.173000 8.651979e-02
0.176000 8.944065e-02
0.179000 9.207886e-02
0.182000 9.441830e-02
0.185000 9.644423e-02
0.188000 9.814342e-02
0.191000 9.950427e-02
0.194000 1.005169e-01
0.197000 1.011734e-01
0.200000 1.014675e-01
0.203000 1.013954e-01
0.206000 1.009549e-01
0.209000 1.001464e-01
0.212000 9.897199e-02
0.215000 9.743635e-02
0.218000 9.554615e-02
0.221000 9.331027e-02
0.224000 9.073975e-02
0.227000 8.784770e-02
0.230000 8.464927e-02
0.233000 8.116157e-02
0.236000 7.740351e-02
0.239000 7.339575e-02
0.242000 6.916055e-02
0.245000 6.472158e-02
0.248000 6.010383e-02
0.251000 5.533336e-02
0.254000 5.043718e-02
0.257000 4.544301e-02
0.260000 4.037910e-02
0.263000 3.527403e-02
0.266000 3.015647e-02
0.269000 2.505498e-02
0.272000 1.999780e-02
0.275000 1.501262e-02
0.278000 1.012638e-02
0.281000 5.365079e-03
0.284000 7.535377e-04
0.287000 -3.684754e-03
0.290000 -7.927829e-03
0.293000 -1.195541e-02
0.296000 -1.574904e-02
0.299000 -1.929225e-02
0.302000 -2.257065e-02
0.305000 -2.557201e-02
0.308000 -2.828640e-02
0.311000 -3.070617e-02
0.314000 -3.282603e-02
0.317000 -3.464308e-02
0.320000 -3.615676e-02
0.323000 -3.736884e-02
0.326000 -3.828339e-02
0.329000 -3.890667e-02
0.332000 -3.924707e-02
0.335000 -3.931501e-02
0.338000 -3.912275e-02
0.341000 -3.868433e-02
0.344000 -3.801533e-02
0.347000 -3.713277e-02
0.350000 -3.605487e-02
0.353000 -3.480088e-02
0.356000 -3.339087e-02
0.359000 -3.184554e-02
0.362000 -3.018597e-02
0.365000 -2.843347e-02
0.368000 -2.660931e-02
0.371000 -2.473455e-02
0.374000 -2.282982e-02
0.377000 -2.091516e-02
0.380000 -1.900979e-02
0.383000 -1.713198e-02
0.386000 -1.529887e-02
0.389000 -1.352635e-02
0.392000 -1.182890e-02
0.395000 -1.021952e-02
0.398000 -8.709624e-03
0.401000 -7.308984e-03
0.404000 -6.025659e-03
0.407000 -4.865983e-03
0.410000 -3.834555e-03
0.413000 -2.934248e-03
0.416000 -2.166243e-03
0.419000 -1.530080e-03
0.422000 -1.023720e-03
0.425000 -6.436394e-04
0.428000 -3.849235e-04
0.431000 -2.413833e-04
0.434000 -2.056818e-04
0.437000 -2.694706e-04
0.440000 -4.235355e-04
0.443000 -6.579477e-04
0.446000 -9.622207e-04
0.449000 -1.325468e-03
0.452000 -1.736564e-03
0.455000 -2.184296e-03
0.458000 -2.657524e-03
0.461000 -3.145323e-03
0.464000 -3.637128e-03
0.467000 -4.122859e-03
0.470000 -4.593046e-03
0.473000 -5.038937e-03
0.476000 -5.452590e-03
0.479000 -5.826959e-03
0.482000 -6.155955e-03
0.485000 -6.434500e-03
0.488000 -6.658563e-03
0.491000 -6.825175e-03
0.494000 -6.932437e-03
0.497000 -6.979504e-03
0.500000 -6.966564e-03
0.503000 -6.894789e-03
0.506000 -6.766289e-03
0.509000 -6.584040e-03
0.512000 -6.351811e-03
0.515000 -6.074075e-03
0.518000 -5.755914e-03
0.521000 -5.402924e-03
0.524000 -5.021098e-03
0.527000 -4.616731e-03
0.530000 -4.196297e-03
0.533000 -3.766349e-03
0.536000 -3.333405e-03
0.539000 -2.903846e-03
0.542000 -2.483816e-03
0.545000 -2.079128e-03
0.548000 -1.695181e-03
0.551000 -1.336883e-03
0.554000 -1.008581e-03
0.557000 -7.140108e-04
0.560000 -4.562474e-04
0.563000 -2.376758e-04
0.566000 -5.996889e-05
0.569000 7.592081e-05
0.572000 1.697574e-04
0.575000 2.220062e-04
0.578000 2.338076e-04
0.581000 2.069394e-04
0.584000 1.437701e-04
0.587000 4.720349e-05
0.590000 -7.938496e-05
0.593000 -2.322178e-04
0.596000 -4.071907e-04
0.599000 -5.999509e-04
0.602000 -8.059786e-04
0.605000 -1.020669e-03
0.608000 -1.239415e-03
0.611000 -1.457684e-03
0.614000 -1.671099e-03
0.617000 -1.875506e-03
0.620000 -2.067047e-03
0.623000 -2.242211e-03
0.626000 -2.397896e-03
0.629000 -2.531447e-03
0.632000 -2.640693e-03
0.635000 -2.723972e-03
0.638000 -2.780149e-03
0.641000 -2.808620e-03
0.644000 -2.809310e-03
0.647000 -2.782663e-03
0.650000 -2.729613e-03
0.653000 -2.651562e-03
0.656000 -2.550336e-03
0.659000 -2.428147e-03
0.662000 -2.287534e-03
0.665000 -2.131315e-03
0.668000 -1.962525e-03
0.671000 -1.784353e-03
0.674000 -1.600081e-03
0.677000 -1.413021e-03
0.680000 -1.226449e-03
0.683000 -1.043551e-03
0.686000 -8.673593e-04
0.689000 -7.007051e-04
0.692000 -5.461676e-04
0.695000 -4.060327e-04
0.698000 -2.822584e-04
0.701000 -1.764452e-04
0.704000 -8.981596e-05
0.707000 -2.320210e-05
0.710000 2.296207e-05
0.713000 4.863737e-05
0.716000 5.417042e-05
0.719000 4.027721e-05
0.722000 8.020050e-06
0.725000 -4.122145e-05
0.728000 -1.057848e-04
0.731000 -1.837635e-04
0.734000 -2.730496e-04
0.737000 -3.713794e-04
0.740000 -4.763804e-04
0.743000 -5.856196e-04
0.746000 -6.966520e-04
0.749000 -8.070673e-04
0.752000 -9.145360e-04
0.755000 -1.016851e-03
0.758000 -1.111970e-03
0.761000 -1.198045e-03
0.764000 -1.273459e-03
0.767000 -1.336849e-03
0.770000 -1.387124e-03
0.773000 -1.423483e-03
0.776000 -1.445421e-03
0.779000 -1.452730e-03
0.782000 -1.445498e-03
0.785000 -1.424100e-03
0.788000 -1.389181e-03
0.791000 -1.341638e-03
0.794000 -1.282596e-03
0.797000 -1.213382e-03
0.800000 -1.135491e-03
0.803000 -1.050553e-03
0.806000 -9.602982e-04
0.809000 -8.665223e-04
0.812000 -7.710459e-04
0.815000 -6.756800e-04
0.818000 -5.821895e-04
0.821000 -4.922600e-04
0.824000 -4.074653e-04
0.827000 -3.292395e-04
0.830000 -2.588511e-04
0.833000 -1.973817e-04
0.836000 -1.457090e-04
0.839000 -1.044934e-04
0.842000 -7.417020e-05
0.845000 -5.494585e-05
0.848000 -4.679892e-05
0.851000 -4.948581e-05
0.854000 -6.255061e-05
0.857000 -8.533914e-05
0.860000 -1.170166e-04
0.863000 -1.565887e-04
0.866000 -2.029251e-04
0.869000 -2.547859e-04
0.872000 -3.108490e-04
0.875000 -3.697392e-04
0.878000 -4.300577e-04
0.881000 -4.904111e-04
0.884000 -5.494400e-04
0.887000 -6.058469e-04
0.890000 -6.584210e-04
0.893000 -7.060621e-04
0.896000 -7.478008e-04
0.899000 -7.828158e-04
0.902000 -8.104485e-04
0.905000 -8.302128e-04
0.908000 -8.418017e-04
0.911000 -8.450902e-04
0.914000 -8.401339e-04
0.917000 -8.271640e-04
0.920000 -8.065785e-04
0.923000 -7.789303e-04
0.926000 -7.449121e-04
0.929000 -7.053383e-04
0.932000 -6.611249e-04
0.935000 -6.132676e-04
0.938000 -5.628183e-04
0.941000 -5.108611e-04
0.944000 -4.584880e-04
0.947000 -4.067745e-04
0.950000 -3.567565e-04
0.953000 -3.094080e-04
0.956000 -2.656210e-04
0.959000 -2.261876e-04
0.962000 -1.917841e-04
0.965000 -1.629583e-04
0.968000 -1.401203e-04
0.971000 -1.235358e-04
0.974000 -1.133237e-04
0.977000 -1.094559e-04
0.980000 -1.117617e-04
0.983000 -1.199343e-04
0.986000 -1.335414e-04
0.989000 -1.520373e-04
0.992000 -1.747784e-04
0.995000 -2.010401e-04
0.998000 -2.300356e-04
1.001000 -2.609358e-04
1.004000 -2.928892e-04
1.007000 -3.250433e-04
1.010000 -3.565642e-04
1.013000 -3.866563e-04
1.016000 -4.145802e-04
1.019000 -4.396698e-04
1.022000 -4.613459e-04
1.025000 -4.791287e-04
1.028000 -4.926473e-04
1.031000 -5.016461e-04
1.034000 -5.059886e-04
1.037000 -5.056576e-04
1.040000 -5.007539e-04
1.043000 -4.914900e-04
1.046000 -4.781832e-04
1.049000 -4.612446e-04
1.052000 -4.411670e-04
1.055000 -4.185105e-04
1.058000 -3.938868e-04
1.061000 -3.679422e-04
1.064000 -3.413405e-04
1.067000 -3.147453e-04
1.070000 -2.888030e-04
1.073000 -2.641259e-04
1.076000 -2.412776e-04
1.079000 -2.207585e-04
1.082000 -2.029943e-04
1.085000 -1.883262e-04
1.088000 -1.770034e-04
1.091000 -1.691782e-04
1.094000 -1.649042e-04
1.097000 -1.641362e-04
1.100000 -1.667335e-04
1.103000 -1.724654e-04
1.106000 -1.810194e-04
1.109000 -1.920108e-04
1.112000 -2.049946e-04
1.115000 -2.194787e-04
1.118000 -2.349384e-04
1.121000 -2.508315e-04
1.124000 -2.666135e-04
1.127000 -2.817527e-04
1.130000 -2.957453e-04
1.133000 -3.081289e-04
1.136000 -3.184951e-04
1.139000 -3.265004e-04
1.142000 -3.318751e-04
1.145000 -3.344304e-04
1.148000 -3.340626e-04
1.151000 -3.307556e-04
1.154000 -3.245807e-04
1.157000 -3.156935e-04
1.160000 -3.043293e-04
1.163000 -2.907958e-04
1.166000 -2.754639e-04
1.169000 -2.587567e-04
1.172000 -2.411375e-04
1.175000 -2.230963e-04
1.178000 -2.051360e-04
1.181000 -1.877577e-04
1.184000 -1.714467e-04
1.187000 -1.566590e-04
1.190000 -1.438079e-04
1.193000 -1.332526e-04
1.196000 -1.252883e-04
1.199000 -1.201371e-04
1.202000 -1.179424e-04
1.205000 -1.187645e-04
1.208000 -1.225785e-04
1.211000 -1.292750e-04
1.214000 -1.386629e-04
1.217000 -1.504743e-04
1.220000 -1.643721e-04
1.223000 -1.799582e-04
1.226000 -1.967852e-04
1.229000 -2.143678e-04
1.232000 -2.321962e-04
1.235000 -2.497498e-04
1.238000 -2.665115e-04
1.241000 -2.819813e-04
1.244000 -2.956904e-04
1.247000 -3.072136e-04
1.250000 -3.161811e-04
1.253000 -3.222884e-04
1.256000 -3.253051e-04
1.259000 -3.250809e-04
1.262000 -3.215499e-04
1.265000 -3.147332e-04
1.268000 -3.047380e-04
1.271000 -2.917554e-04
1.274000 -2.760555e-04
1.277000 -2.579808e-04
1.280000 -2.379372e-04
1.283000 -2.163836e-04
1.286000 -1.938204e-04
1.289000 -1.707763e-04
1.292000 -1.477947e-04
1.295000 -1.254200e-04
1.298000 -1.041834e-04
1.301000 -8.458917e-05
1.304000 -6.710201e-05
1.307000 -5.213505e-05
1.310000 -4.003934e-05
1.313000 -3.109505e-05
1.316000 -2.550442e-05
1.319000 -2.338676e-05
1.322000 -2.477565e-05
1.325000 -2.961830e-05
1.328000 -3.777712e-05
1.331000 -4.903348e-05
1.334000 -6.309354e-05
1.337000 -7.959585e-05
1.340000 -9.812083e-05
1.343000 -1.182014e-04
1.346000 -1.393352e-04
1.349000 -1.609968e-04
1.352000 -1.826515e-04
1.355000 -2.037682e-04
1.358000 -2.238329e-04
1.361000 -2.423610e-04
1.364000 -2.589092e-04
1.367000 -2.730860e-04
1.370000 -2.845608e-04
1.373000 -2.930716e-04
1.376000 -2.984304e-04
1.379000 -3.005272e-04
1.382000 -2.993315e-04
1.385000 -2.948923e-04
1.388000 -2.873354e-04
1.391000 -2.768596e-04
1.394000 -2.637307e-04
1.397000 -2.482734e-04
1.400000 -2.308631e-04
1.403000 -2.119154e-04
1.406000 -1.918749e-04
1.409000 -1.712046e-04
1.412000 -1.503734e-04
1.415000 -1.298446e-04
1.418000 -1.100650e-04
1.421000 -9.145377e-05
1.424000 -7.439318e-05
1.427000 -5.921969e-05
1.430000 -4.621687e-05
1.433000 -3.560967e-05
1.436000 -2.756036e-05
1.439000 -2.216606e-05
1.442000 -1.945813e-05
1.445000 -1.940318e-05
1.448000 -2.190570e-05
1.451000 -2.681226e-05
1.454000 -3.391707e-05
1.457000 -4.296869e-05
1.460000 -5.367776e-05
1.463000 -6.572550e-05
1.466000 -7.877267e-05
1.469000 -9.246878e-05
1.472000 -1.064613e-04
1.475000 -1.204048e-04
1.478000 -1.339691e-04
1.481000 -1.468474e-04
1.484000 -1.587629e-04
1.487000 -1.694749e-04
1.490000 -1.787831e-04
1.493000 -1.865314e-04
1.496000 -1.926097e-04
1.499000 -1.969548e-04
1.502000 -1.995497e-04
1.505000 -2.004220e-04
1.508000 -1.996406e-04
1.511000 -1.973121e-04
1.514000 -1.935759e-04
1.517000 -1.885985e-04
1.520000 -1.825673e-04
1.523000 -1.756849e-04
1.526000 -1.681618e-04
1.529000 -1.602104e-04
1.532000 -1.520389e-04
1.535000 -1.438455e-04
1.538000 -1.358133e-04
1.541000 -1.281059e-04
1.544000 -1.208637e-04
1.547000 -1.142017e-04
1.550000 -1.082074e-04
1.553000 -1.029399e-04
1.556000 -9.843075e-05
1.559000 -9.468452e-05
1.562000 -9.168093e-05
1.565000 -8.937753e-05
1.568000 -8.771300e-05
1.571000 -8.661087e-05
1.574000 -8.598368e-05
1.577000 -8.573725e-05
1.580000 -8.577497e-05
1.583000 -8.600203e-05
1.586000 -8.632931e-05
1.589000 -8.667695e-05
1.592000 -8.697732e-05
1.595000 -8.717747e-05
1.598000 -8.724084e-05
1.601000 -8.714831e-05
1.604000 -8.689844e-05
1.607000 -8.650701e-05
1.610000 -8.600587e-05
1.613000 -8.544111e-05
1.616000 -8.487064e-05
1.619000 -8.436131e-05
1.622000 -8.398570e-05
1.625000 -8.381855e-05
1.628000 -8.393323e-05
1.631000 -8.439805e-05
1.634000 -8.527287e-05
1.637000 -8.660593e-05
1.640000 -8.843101e-05
1.643000 -9.076524e-05
1.646000 -9.360731e-05
1.649000 -9.693649e-05
1.652000 -1.007122e-04
1.655000 -1.048746e-04
1.658000 -1.093454e-04
1.661000 -1.140298e-04
1.664000 -1.188189e-04
1.667000 -1.235927e-04
1.670000 -1.282238e-04
1.673000 -1.325811e-04
1.676000 -1.365340e-04
1.679000 -1.399567e-04
1.682000 -1.427328e-04
1.685000 -1.447592e-04
1.688000 -1.459504e-04
1.691000 -1.462421e-04
1.694000 -1.455942e-04
1.697000 -1.439935e-04
1.700000 -1.414560e-04
1.703000 -1.380278e-04
1.706000 -1.337858e-04
1.709000 -1.288377e-04
1.712000 -1.233211e-04
1.715000 -1.174016e-04
1.718000 -1.112711e-04
1.721000 -1.051448e-04
1.724000 -9.925808e-05
1.727000 -9.386304e-05
1.730000 -8.922471e-05
1.733000 -8.561736e-05
1.736000 -8.332078e-05
1.739000 -8.261682e-05
1.742000 -8.378628e-05
1.745000 -8.710628e-05
1.748000 -9.284833e-05
1.751000 -1.012770e-04
1.754000 -1.126494e-04
1.757000 -1.272160e-04
1.760000 -1.452213e-04
1.763000 -1.669070e-04
1.766000 -1.925144e-04
1.769000 -2.222894e-04
1.772000 -2.564870e-04
1.775000 -2.953772e-04
1.778000 -3.392518e-04
1.781000 -3.884312e-04
1.784000 -4.432718e-04
1.787000 -5.041738e-04
1.790000 -5.715891e-04
1.793000 -6.460283e-04
1.796000 -7.280685e-04
1.799000 -8.183599e-04
1.802000 -9.176316e-04
1.805000 -1.026697e-03
1.808000 -1.146456e-03
1.811000 -1.277902e-03
1.814000 -1.422118e-03
1.817000 -1.580278e-03
1.820000 -1.753646e-03
1.823000 -1.943573e-03
1.826000 -2.151484e-03
1.829000 -2.378882e-03
1.832000 -2.627325e-03
1.835000 -2.898424e-03
1.838000 -3.193824e-03
1.841000 -3.515189e-03
1.844000 -3.864185e-03
1.847000 -4.242457e-03
1.850000 -4.651611e-03
1.853000 -5.093190e-03
1.856000 -5.568647e-03
1.859000 -6.079320e-03
1.862000 -6.626406e-03
1.865000 -7.210934e-03
1.868000 -7.833730e-03
1.871000 -8.495396e-03
1.874000 -9.196275e-03
1.877000 -9.936424e-03
1.880000 -1.071559e-02
1.883000 -1.153316e-02
1.886000 -1.238818e-02
1.889000 -1.327928e-02
1.892000 -1.420467e-02
1.895000 -1.516214e-02
1.898000 -1.614899e-02
1.901000 -1.716209e-02
1.904000 -1.819778e-02
1.907000 -1.925193e-02
1.910000 -2.031991e-02
1.913000 -2.139658e-02
1.916000 -2.247632e-02
1.919000 -2.355301e-02
1.922000 -2.462009e-02
1.925000 -2.567052e-02
1.928000 -2.669686e-02
1.931000 -2.769129e-02
1.934000 -2.864563e-02
1.937000 -2.955141e-02
1.940000 -3.039992e-02
1.943000 -3.118226e-02
1.946000 -3.188939e-02
1.949000 -3.251224e-02
1.952000 -3.304174e-02
1.955000 -3.346895e-02
1.958000 -3.378509e-02
1.961000 -3.398167e-02
1.964000 -3.405055e-02
1.967000 -3.398407e-02
1.970000 -3.377509e-02
1.973000 -3.341714e-02
1.976000 -3.290445e-02
1.979000 -3.223211e-02
1.982000 -3.139607e-02
1.985000 -3.039330e-02
1.988000 -2.922183e-02
1.991000 -2.788080e-02
1.994000 -2.637054e-02
1.997000 -2.469263e-02
2.000000 -2.284989e-02
2.003000 -2.084647e-02
2.006000 -1.868783e-02
2.009000 -1.638072e-02
2.012000 -1.393321e-02
2.015000 -1.135466e-02
2.018000 -8.655640e-03
2.021000 -5.847918e-03
2.024000 -2.944370e-03
2.027000 4.109459e-05
2.030000 3.093630e-03
2.033000 6.197562e-03
2.036000 9.336505e-03
2.039000 1.249349e-02
2.042000 1.565111e-02
2.045000 1.879165e-02
2.048000 2.189725e-02
2.051000 2.495005e-02
2.054000 2.793238e-02
2.057000 3.082684e-02
2.060000 3.361656e-02
2.063000 3.628528e-02
2.066000 3.881750e-02
2.069000 4.119865e-02
2.072000 4.341524e-02
2.075000 4.545489e-02
2.078000 4.730656e-02
2.081000 4.896056e-02
2.084000 5.040866e-02
2.087000 5.164415e-02
2.090000 5.266191e-02
2.093000 5.345842e-02
2.096000 5.403180e-02
2.099000 5.438177e-02
2.102000 5.450969e-02
2.105000 5.441847e-02
2.108000 5.411256e-02
2.111000 5.359786e-02
2.114000 5.288167e-02
2.117000 5.197255e-02
2.120000 5.088027e-02
2.123000 4.961568e-02
2.126000 4.819055e-02
2.129000 4.661750e-02
2.132000 4.490983e-02
2.135000 4.308138e-02
2.138000 4.114643e-02
2.141000 3.911949e-02
2.144000 3.701525e-02
2.147000 3.484838e-02
2.150000 3.263341e-02
2.153000 3.038465e-02
2.156000 2.811602e-02
2.159000 2.584097e-02
2.162000 2.357240e-02
2.165000 2.132252e-02
2.168000 1.910284e-02
2.171000 1.692403e-02
2.174000 1.479595e-02
2.177000 1.272754e-02
2.180000 1.072681e-02
2.183000 8.800849e-03
2.186000 6.955777e-03
2.189000 5.196769e-03
2.192000 3.528061e-03
2.195000 1.952976e-03
2.198000 4.739492e-04
2.201000 -9.074333e-04
2.204000 -2.190389e-03
2.207000 -3.374893e-03
2.210000 -4.461621e-03
2.213000 -5.451893e-03
2.216000 -6.347612e-03
2.219000 -7.151206e-03
2.222000 -7.865561e-03
2.225000 -8.493958e-03
2.228000 -9.040015e-03
2.231000 -9.507625e-03
2.234000 -9.900896e-03
2.237000 -1.022410e-02
2.240000 -1.048161e-02
2.243000 -1.067786e-02
2.246000 -1.081731e-02
2.249000 -1.090439e-02
2.252000 -1.094347e-02
2.255000 -1.093880e-02
2.258000 -1.089455e-02
2.261000 -1.081472e-02
2.264000 -1.070315e-02
2.267000 -1.056350e-02
2.270000 -1.039924e-02
2.273000 -1.021364e-02
2.276000 -1.000975e-02
2.279000 -9.790442e-03
2.282000 -9.558359e-03
2.285000 -9.315948e-03
2.288000 -9.065452e-03
2.291000 -8.808925e-03
2.294000 -8.548231e-03
2.297000 -8.285057e-03
2.300000 -8.020921e-03
2.303000 -7.757182e-03
2.306000 -7.495049e-03
2.309000 -7.235591e-03
2.312000 -6.979747e-03
2.315000 -6.728335e-03
2.318000 -6.482062e-03
2.321000 -6.241531e-03
2.324000 -6.007253e-03
2.327000 -5.779648e-03
2.330000 -5.559058e-03
2.333000 -5.345754e-03
2.336000 -5.139935e-03
2.339000 -4.941742e-03
2.342000 -4.751258e-03
2.345000 -4.568514e-03
2.348000 -4.393495e-03
2.351000 -4.226140e-03
2.354000 -4.066352e-03
2.357000 -3.913996e-03
2.360000 -3.768908e-03
2.363000 -3.630892e-03
2.366000 -3.499729e-03
2.369000 -3.375180e-03
2.372000 -3.256986e-03
2.375000 -3.144874e-03
2.378000 -3.038560e-03
2.381000 -2.937753e-03
2.384000 -2.842156e-03
2.387000 -2.751473e-03
2.390000 -2.665408e-03
2.393000 -2.583669e-03
2.396000 -2.505975e-03
2.399000 -2.432051e-03
2.402000 -2.361638e-03
2.405000 -2.294488e-03
2.408000 -2.230372e-03
2.411000 -2.169075e-03
2.414000 -2.110403e-03
2.417000 -2.054179e-03
2.420000 -2.000245e-03
2.423000 -1.948461e-03
2.426000 -1.898705e-03
2.429000 -1.850872e-03
2.432000 -1.804872e-03
2.435000 -1.760630e-03
2.438000 -1.718082e-03
2.441000 -1.677173e-03
2.444000 -1.637858e-03
2.447000 -1.600096e-03
2.450000 -1.563851e-03
2.453000 -1.529086e-03
2.456000 -1.495766e-03
2.459000 -1.463850e-03
2.462000 -1.433296e-03
2.465000 -1.404055e-03
2.468000 -1.376069e-03
2.471000 -1.349276e-03
2.474000 -1.323604e-03
2.477000 -1.298973e-03
2.480000 -1.275295e-03
2.483000 -1.252477e-03
2.486000 -1.230417e-03
2.489000 -1.209011e-03
2.492000 -1.188151e-03
2.495000 -1.167728e-03
2.498000 -1.147634e-03
2.501000 -1.127765e-03
2.504000 -1.108022e-03
2.507000 -1.088314e-03
2.510000 -1.068560e-03
2.513000 -1.048690e-03
2.516000 -1.028651e-03
2.519000 -1.008402e-03
2.522000 -9.879207e-04
2.525000 -9.672033e-04
2.528000 -9.462633e-04
2.531000 -9.251334e-04
2.534000 -9.038643e-04
2.537000 -8.825243e-04
2.540000 -8.611981e-04
2.543000 -8.399849e-04
2.546000 -8.189967e-04
2.549000 -7.983558e-04
2.552000 -7.781916e-04
2.555000 -7.586383e-04
2.558000 -7.398312e-04
2.561000 -7.219037e-04
2.564000 -7.049835e-04
2.567000 -6.891895e-04
2.570000 -6.746285e-04
2.573000 -6.613921e-04
2.576000 -6.495540e-04
2.579000 -6.391670e-04
2.582000 -6.302615e-04
2.585000 -6.228438e-04
2.588000 -6.168943e-04
2.591000 -6.123679e-04
2.594000 -6.091932e-04
2.597000 -6.072734e-04
