-0.400000 5.709309e-04
-0.397000 4.949495e-04
-0.394000 4.183518e-04
-0.391000 3.418114e-04
-0.388000 2.659918e-04
-0.385000 1.915396e-04
-0.382000 1.190778e-04
-0.379000 4.919924e-05
-0.376000 -1.753980e-05
-0.373000 -8.062530e-05
-0.370000 -1.395908e-04
-0.367000 -1.940221e-04
-0.364000 -2.435615e-04
-0.361000 -2.879111e-04
-0.358000 -3.268355e-04
-0.355000 -3.601636e-04
-0.352000 -3.877902e-04
-0.349000 -4.096755e-04
-0.346000 -4.258451e-04
-0.343000 -4.363887e-04
-0.340000 -4.414574e-04
-0.337000 -4.412614e-04
-0.334000 -4.360657e-04
-0.331000 -4.261864e-04
-0.328000 -4.119850e-04
-0.325000 -3.938634e-04
-0.322000 -3.722576e-04
-0.319000 -3.476316e-04
-0.316000 -3.204701e-04
-0.313000 -2.912723e-04
-0.310000 -2.605443e-04
-0.307000 -2.287926e-04
-0.304000 -1.965168e-04
-0.301000 -1.642030e-04
-0.298000 -1.323176e-04
-0.295000 -1.013009e-04
-0.292000 -7.156212e-05
-0.289000 -4.347383e-05
-0.286000 -1.736801e-05
-0.283000 6.467769e-06
-0.280000 2.779322e-05
-0.277000 4.641752e-05
-0.274000 6.220063e-05
-0.271000 7.505388e-05
-0.268000 8.493966e-05
-0.265000 9.187040e-05
-0.262000 9.590673e-05
-0.259000 9.715493e-05
-0.256000 9.576371e-05
-0.253000 9.192037e-05
-0.250000 8.584646e-05
-0.247000 7.779287e-05
-0.244000 6.803471e-05
-0.241000 5.686574e-05
-0.238000 4.459272e-05
-0.235000 3.152969e-05
-0.232000 1.799213e-05
-0.229000 4.291416e-06
-0.226000 -9.270698e-06
-0.223000 -2.240717e-05
-0.220000 -3.485047e-05
-0.217000 -4.635686e-05
-0.214000 -5.671020e-05
-0.211000 -6.572515e-05
-0.208000 -7.324976e-05
-0.205000 -7.916739e-05
-0.202000 -8.339794e-05
-0.199000 -8.589838e-05
-0.196000 -8.666264e-05
-0.193000 -8.572073e-05
-0.190000 -8.313728e-05
-0.187000 -7.900945e-05
-0.184000 -7.346422e-05
-0.181000 -6.665526e-05
-0.178000 -5.875925e-05
-0.175000 -4.997194e-05
-0.172000 -4.050380e-05
-0.169000 -3.057556e-05
-0.166000 -2.041355e-05
-0.163000 -1.024509e-05
-0.160000 -2.938067e-07
-0.157000 9.224768e-06
-0.154000 1.810750e-05
-0.151000 2.616761e-05
-0.148000 3.323824e-05
-0.145000 3.917562e-05
-0.142000 4.386179e-05
-0.139000 4.720666e-05
-0.136000 4.914967e-05
-0.133000 4.966070e-05
-0.130000 4.874049e-05
-0.127000 4.642035e-05
-0.124000 4.276137e-05
-0.121000 3.785297e-05
-0.118000 3.181092e-05
-0.115000 2.477485e-05
-0.112000 1.690530e-05
-0.109000 8.380355e-06
-0.106000 -6.080233e-07
-0.103000 -9.857995e-06
-0.100000 -1.916197e-05
-0.097000 -2.831088e-05
-0.094000 -3.709844e-05
-0.091000 -4.532541e-05
-0.088000 -5.280369e-05
-0.085000 -5.936013e-05
-0.082000 -6.484019e-05
-0.079000 -6.911111e-05
-0.076000 -7.206469e-05
-0.073000 -7.361962e-05
-0.070000 -7.372325e-05
-0.067000 -7.235277e-05
-0.064000 -6.951589e-05
-0.061000 -6.525075e-05
-0.058000 -5.962544e-05
-0.055000 -5.273670e-05
-0.052000 -4.470819e-05
-0.049000 -3.568818e-05
-0.046000 -2.584666e-05
-0.043000 -1.537211e-05
-0.040000 -4.467787e-06
-0.037000 6.652233e-06
-0.034000 1.776732e-05
-0.031000 2.865466e-05
-0.028000 3.909376e-05
-0.025000 4.887085e-05
-0.022000 5.778328e-05
-0.019000 6.564366e-05
-0.016000 7.228374e-05
-0.013000 7.755792e-05
-0.010000 8.134640e-05
-0.007000 8.355772e-05
-0.004000 8.413086e-05
-0.001000 8.303668e-05
0.002000 8.027875e-05
0.005000 7.589354e-05
0.008000 6.994994e-05
0.011000 6.254811e-05
0.014000 5.381776e-05
0.017000 4.391573e-05
0.020000 3.302309e-05
0.023000 2.134173e-05
0.026000 9.090423e-06
0.029000 -3.499324e-06
0.032000 -1.618783e-05
0.035000 -2.873193e-05
0.038000 -4.088975e-05
0.041000 -5.242550e-05
0.044000 -6.311418e-05
0.047000 -7.274604e-05
0.050000 -8.113081e-05
0.053000 -8.810153e-05
0.056000 -9.351790e-05
0.059000 -9.726917e-05
0.062000 -9.927637e-05
0.065000 -9.949397e-05
0.068000 -9.791085e-05
0.071000 -9.455056e-05
0.074000 -8.947094e-05
0.077000 -8.276299e-05
0.080000 -7.454913e-05
0.083000 -6.498079e-05
0.086000 -5.423546e-05
0.089000 -4.251316e-05
0.092000 -3.003255e-05
0.095000 -1.702656e-05
0.098000 -3.737867e-06
0.101000 9.585901e-06
0.104000 2.269702e-05
0.107000 3.535251e-05
0.110000 4.731884e-05
0.113000 5.837648e-05
0.116000 6.832409e-05
0.119000 7.698234e-05
0.122000 8.419732e-05
0.125000 8.984335e-05
0.128000 9.382523e-05
0.131000 9.607990e-05
0.134000 9.657741e-05
0.137000 9.532121e-05
0.140000 9.234783e-05
0.143000 8.772584e-05
0.146000 8.155420e-05
0.149000 7.396007e-05
0.152000 6.509601e-05
0.155000 5.513677e-05
0.158000 4.427560e-05
0.161000 3.272035e-05
0.164000 2.068925e-05
0.167000 8.406556e-06
0.170000 -3.901857e-06
0.173000 -1.601283e-05
0.176000 -2.771018e-05
0.179000 -3.878872e-05
0.182000 -4.905804e-05
0.185000 -5.834584e-05
0.188000 -6.650094e-05
0.191000 -7.339572e-05
0.194000 -7.892817e-05
0.197000 -8.302323e-05
0.200000 -8.563374e-05
0.203000 -8.674066e-05
0.206000 -8.635289e-05
0.209000 -8.450639e-05
0.212000 -8.126292e-05
0.215000 -7.670819e-05
0.218000 -7.094972e-05
0.221000 -6.411419e-05
0.224000 -5.634461e-05
0.227000 -4.779714e-05
0.230000 -3.863786e-05
0.233000 -2.903935e-05
0.236000 -1.917732e-05
0.239000 -9.227218e-06
0.242000 6.389812e-07
0.245000 1.025585e-05
0.248000 1.946731e-05
0.251000 2.812924e-05
0.254000 3.611162e-05
0.257000 4.330043e-05
0.260000 4.959917e-05
0.263000 5.492987e-05
0.266000 5.923388e-05
0.269000 6.247206e-05
0.272000 6.462478e-05
0.275000 6.569139e-05
0.278000 6.568949e-05
0.281000 6.465379e-05
0.284000 6.263476e-05
0.287000 5.969703e-05
0.290000 5.591763e-05
0.293000 5.138407e-05
0.296000 4.619236e-05
0.299000 4.044496e-05
0.302000 3.424874e-05
0.305000 2.771299e-05
0.308000 2.094753e-05
0.311000 1.406084e-05
0.314000 7.158470e-06
0.317000 3.414945e-07
0.320000 -6.294792e-06
0.323000 -1.266200e-05
0.326000 -1.867958e-05
0.329000 -2.427554e-05
0.332000 -2.938698e-05
0.335000 -3.396044e-05
0.338000 -3.795207e-05
0.341000 -4.132762e-05
0.344000 -4.406232e-05
0.347000 -4.614060e-05
0.350000 -4.755575e-05
0.353000 -4.830945e-05
0.356000 -4.841123e-05
0.359000 -4.787798e-05
0.362000 -4.673328e-05
0.365000 -4.500685e-05
0.368000 -4.273395e-05
0.371000 -3.995474e-05
0.374000 -3.671372e-05
0.377000 -3.305921e-05
0.380000 -2.904276e-05
0.383000 -2.471866e-05
0.386000 -2.014345e-05
0.389000 -1.537544e-05
0.392000 -1.047421e-05
0.395000 -5.500180e-06
0.398000 -5.141212e-07
0.401000 4.423335e-06
0.404000 9.252187e-06
0.407000 1.391358e-05
0.410000 1.835037e-05
0.413000 2.250764e-05
0.416000 2.633337e-05
0.419000 2.977896e-05
0.422000 3.279992e-05
0.425000 3.535643e-05
0.428000 3.741403e-05
0.431000 3.894416e-05
0.434000 3.992474e-05
0.437000 4.034069e-05
0.440000 4.018437e-05
0.443000 3.945594e-05
0.446000 3.816363e-05
0.449000 3.632387e-05
0.452000 3.396133e-05
0.455000 3.110881e-05
0.458000 2.780693e-05
0.461000 2.410377e-05
0.464000 2.005423e-05
0.467000 1.571937e-05
0.470000 1.116550e-05
0.473000 6.463222e-06
0.476000 1.686242e-06
0.479000 -3.089796e-06
0.482000 -7.788629e-06
0.485000 -1.233473e-05
0.488000 -1.665469e-05
0.491000 -2.067857e-05
0.494000 -2.434127e-05
0.497000 -2.758378e-05
0.500000 -3.035438e-05
0.503000 -3.260965e-05
0.506000 -3.431542e-05
0.509000 -3.544745e-05
0.512000 -3.599198e-05
0.515000 -3.594601e-05
0.518000 -3.531743e-05
0.521000 -3.412486e-05
0.524000 -3.239725e-05
0.527000 -3.017334e-05
0.530000 -2.750079e-05
0.533000 -2.443521e-05
0.536000 -2.103899e-05
0.539000 -1.737992e-05
0.542000 -1.352978e-05
0.545000 -9.562802e-06
0.548000 -5.554062e-06
0.551000 -1.577917e-06
0.554000 2.293578e-06
0.557000 5.992173e-06
0.560000 9.454824e-06
0.563000 1.262496e-05
0.566000 1.545360e-05
0.569000 1.790023e-05
0.572000 1.993356e-05
0.575000 2.153195e-05
0.578000 2.268369e-05
0.581000 2.338695e-05
0.584000 2.364957e-05
0.587000 2.348858e-05
0.590000 2.292953e-05
0.593000 2.200556e-05
0.596000 2.075641e-05
0.599000 1.922718e-05
0.602000 1.746706e-05
0.605000 1.552797e-05
0.608000 1.346311e-05
0.611000 1.132560e-05
0.614000 9.167137e-06
0.617000 7.036654e-06
0.620000 4.979197e-06
0.623000 3.034873e-06
0.626000 1.237986e-06
0.629000 -3.836493e-07
0.632000 -1.809185e-06
0.635000 -3.025011e-06
0.638000 -4.024814e-06
0.641000 -4.809414e-06
0.644000 -5.386413e-06
0.647000 -5.769640e-06
0.650000 -5.978437e-06
0.653000 -6.036785e-06
0.656000 -5.972328e-06
0.659000 -5.815292e-06
0.662000 -5.597363e-06
0.665000 -5.350532e-06
0.668000 -5.105962e-06
0.671000 -4.892894e-06
0.674000 -4.737638e-06
0.677000 -4.662665e-06
0.680000 -4.685839e-06
0.683000 -4.819797e-06
0.686000 -5.071504e-06
0.689000 -5.441994e-06
0.692000 -5.926301e-06
0.695000 -6.513575e-06
0.698000 -7.187394e-06
0.701000 -7.926248e-06
0.704000 -8.704187e-06
0.707000 -9.491612e-06
0.710000 -1.025618e-05
0.713000 -1.096382e-05
0.716000 -1.157979e-05
0.719000 -1.206977e-05
0.722000 -1.240098e-05
0.725000 -1.254326e-05
0.728000 -1.247006e-05
0.731000 -1.215939e-05
0.734000 -1.159460e-05
0.737000 -1.076507e-05
0.740000 -9.666747e-06
0.743000 -8.302456e-06
0.746000 -6.682078e-06
0.749000 -4.822530e-06
0.752000 -2.747551e-06
0.755000 -4.873177e-07
0.758000 1.922126e-06
0.761000 4.439584e-06
0.764000 7.019571e-06
0.767000 9.613294e-06
0.770000 1.216972e-05
0.773000 1.463674e-05
0.776000 1.696230e-05
0.779000 1.909566e-05
0.782000 2.098851e-05
0.785000 2.259611e-05
0.788000 2.387836e-05
0.791000 2.480073e-05
0.794000 2.533512e-05
0.797000 2.546050e-05
0.800000 2.516349e-05
0.803000 2.443872e-05
0.806000 2.328899e-05
0.809000 2.172535e-05
0.812000 1.976686e-05
0.815000 1.744033e-05
0.818000 1.477977e-05
0.821000 1.182578e-05
0.824000 8.624766e-06
0.827000 5.228020e-06
0.830000 1.690765e-06
0.833000 -1.928919e-06
0.836000 -5.571202e-06
0.839000 -9.175630e-06
0.842000 -1.268226e-05
0.845000 -1.603275e-05
0.848000 -1.917143e-05
0.851000 -2.204630e-05
0.854000 -2.460991e-05
0.857000 -2.682016e-05
0.860000 -2.864102e-05
0.863000 -3.004301e-05
0.866000 -3.100372e-05
0.869000 -3.150801e-05
0.872000 -3.154819e-05
0.875000 -3.112402e-05
0.878000 -3.024256e-05
0.881000 -2.891795e-05
0.884000 -2.717100e-05
0.887000 -2.502876e-05
0.890000 -2.252391e-05
0.893000 -1.969413e-05
0.896000 -1.658140e-05
0.899000 -1.323127e-05
0.902000 -9.692068e-06
0.905000 -6.014098e-06
0.908000 -2.248883e-06
0.911000 1.551620e-06
0.914000 5.335761e-06
0.917000 9.052889e-06
0.920000 1.265401e-05
0.923000 1.609238e-05
0.926000 1.932404e-05
0.929000 2.230827e-05
0.932000 2.500800e-05
0.935000 2.739014e-05
0.938000 2.942581e-05
0.941000 3.109061e-05
0.944000 3.236468e-05
0.947000 3.323283e-05
0.950000 3.368455e-05
0.953000 3.371402e-05
0.956000 3.332006e-05
0.959000 3.250601e-05
0.962000 3.127968e-05
0.965000 2.965318e-05
0.968000 2.764279e-05
0.971000 2.526879e-05
0.974000 2.255530e-05
0.977000 1.953007e-05
0.980000 1.622429e-05
0.983000 1.267240e-05
0.986000 8.911833e-06
0.989000 4.982809e-06
0.992000 9.280432e-07
0.995000 -3.207524e-06
0.998000 -7.377046e-06
1.001000 -1.153211e-05
1.004000 -1.562312e-05
1.007000 -1.959973e-05
1.010000 -2.341125e-05
1.013000 -2.700722e-05
1.016000 -3.033789e-05
1.019000 -3.335482e-05
1.022000 -3.601149e-05
1.025000 -3.826393e-05
1.028000 -4.007143e-05
1.031000 -4.139716e-05
1.034000 -4.220887e-05
1.037000 -4.247960e-05
1.040000 -4.218830e-05
1.043000 -4.132046e-05
1.046000 -3.986866e-05
1.049000 -3.783313e-05
1.052000 -3.522211e-05
1.055000 -3.205218e-05
1.058000 -2.834854e-05
1.061000 -2.414502e-05
1.064000 -1.948409e-05
1.067000 -1.441663e-05
1.070000 -9.001645e-06
1.073000 -3.305689e-06
1.076000 2.597729e-06
1.079000 8.628992e-06
1.082000 1.470333e-05
1.085000 2.073194e-05
1.088000 2.662322e-05
1.091000 3.228411e-05
1.094000 3.762157e-05
1.097000 4.254408e-05
1.100000 4.696323e-05
1.103000 5.079531e-05
1.106000 5.396288e-05
1.109000 5.639634e-05
1.112000 5.803542e-05
1.115000 5.883051e-05
1.118000 5.874398e-05
1.121000 5.775120e-05
1.124000 5.584149e-05
1.127000 5.301879e-05
1.130000 4.930210e-05
1.133000 4.472571e-05
1.136000 3.933913e-05
1.139000 3.320672e-05
1.142000 2.640710e-05
1.145000 1.903228e-05
1.148000 1.118642e-05
1.151000 2.984498e-06
1.154000 -5.449427e-06
1.157000 -1.398405e-05
1.160000 -2.248288e-05
1.163000 -3.080650e-05
1.166000 -3.881487e-05
1.169000 -4.636973e-05
1.172000 -5.333710e-05
1.175000 -5.958967e-05
1.178000 -6.500921e-05
1.181000 -6.948883e-05
1.184000 -7.293515e-05
1.187000 -7.527021e-05
1.190000 -7.643318e-05
1.193000 -7.638185e-05
1.196000 -7.509371e-05
1.199000 -7.256683e-05
1.202000 -6.882024e-05
1.205000 -6.389412e-05
1.208000 -5.784942e-05
1.211000 -5.076726e-05
1.214000 -4.274787e-05
1.217000 -3.390920e-05
1.220000 -2.438513e-05
1.223000 -1.432347e-05
1.226000 -3.883571e-06
1.229000 6.766251e-06
1.232000 1.745153e-05
1.235000 2.799457e-05
1.238000 3.821756e-05
1.241000 4.794560e-05
1.244000 5.700984e-05
1.247000 6.525053e-05
1.250000 7.251986e-05
1.253000 7.868476e-05
1.256000 8.362936e-05
1.259000 8.725724e-05
1.262000 8.949332e-05
1.265000 9.028541e-05
1.268000 8.960537e-05
1.271000 8.744984e-05
1.274000 8.384056e-05
1.277000 7.882420e-05
1.280000 7.247184e-05
1.283000 6.487786e-05
1.286000 5.615857e-05
1.289000 4.645035e-05
1.292000 3.590741e-05
1.295000 2.469928e-05
1.298000 1.300797e-05
1.301000 1.024866e-06
1.304000 -1.105246e-05
1.307000 -2.302368e-05
1.310000 -3.468913e-05
1.313000 -4.585329e-05
1.316000 -5.632814e-05
1.319000 -6.593645e-05
1.322000 -7.451487e-05
1.325000 -8.191681e-05
1.328000 -8.801498e-05
1.331000 -9.270367e-05
1.334000 -9.590060e-05
1.337000 -9.754836e-05
1.340000 -9.761548e-05
1.343000 -9.609699e-05
1.346000 -9.301453e-05
1.349000 -8.841600e-05
1.352000 -8.237476e-05
1.355000 -7.498837e-05
1.358000 -6.637696e-05
1.361000 -5.668111e-05
1.364000 -4.605948e-05
1.367000 -3.468611e-05
1.370000 -2.274738e-05
1.373000 -1.043890e-05
1.376000 2.037876e-06
1.379000 1.447904e-05
1.382000 2.668168e-05
1.385000 3.844733e-05
1.388000 4.958527e-05
1.391000 5.991571e-05
1.394000 6.927274e-05
1.397000 7.750712e-05
1.400000 8.448861e-05
1.403000 9.010812e-05
1.406000 9.427937e-05
1.409000 9.694023e-05
1.412000 9.805358e-05
1.415000 9.760778e-05
1.418000 9.561668e-05
1.421000 9.211923e-05
1.424000 8.717860e-05
1.427000 8.088102e-05
1.430000 7.333412e-05
1.433000 6.466499e-05
1.436000 5.501793e-05
1.439000 4.455192e-05
1.442000 3.343791e-05
1.445000 2.185588e-05
1.448000 9.991811e-06
1.451000 -1.965358e-06
1.454000 -1.382687e-05
1.457000 -2.540717e-05
1.460000 -3.652690e-05
1.463000 -4.701571e-05
1.466000 -5.671488e-05
1.469000 -6.547971e-05
1.472000 -7.318171e-05
1.475000 -7.971043e-05
1.478000 -8.497495e-05
1.481000 -8.890511e-05
1.484000 -9.145232e-05
1.487000 -9.259003e-05
1.490000 -9.231385e-05
1.493000 -9.064130e-05
1.496000 -8.761121e-05
1.499000 -8.328279e-05
1.502000 -7.773442e-05
1.505000 -7.106216e-05
1.508000 -6.337794e-05
1.511000 -5.480762e-05
1.514000 -4.548885e-05
1.517000 -3.556874e-05
1.520000 -2.520150e-05
1.523000 -1.454596e-05
1.526000 -3.763107e-06
1.529000 6.986361e-06
1.532000 1.754446e-05
1.535000 2.775820e-05
1.538000 3.748180e-05
1.541000 4.657868e-05
1.544000 5.492331e-05
1.547000 6.240286e-05
1.550000 6.891862e-05
1.553000 7.438713e-05
1.556000 7.874115e-05
1.559000 8.193032e-05
1.562000 8.392153e-05
1.565000 8.469913e-05
1.568000 8.426479e-05
1.571000 8.263716e-05
1.574000 7.985133e-05
1.577000 7.595801e-05
1.580000 7.102259e-05
1.583000 6.512394e-05
1.586000 5.835313e-05
1.589000 5.081196e-05
1.592000 4.261145e-05
1.595000 3.387014e-05
1.598000 2.471244e-05
1.601000 1.526688e-05
1.604000 5.664367e-06
1.607000 -3.963572e-06
1.610000 -1.348648e-05
1.613000 -2.277664e-05
1.616000 -3.171065e-05
1.619000 -4.017097e-05
1.622000 -4.804726e-05
1.625000 -5.523773e-05
1.628000 -6.165030e-05
1.631000 -6.720358e-05
1.634000 -7.182785e-05
1.637000 -7.546571e-05
1.640000 -7.807274e-05
1.643000 -7.961791e-05
1.646000 -8.008383e-05
1.649000 -7.946694e-05
1.652000 -7.777738e-05
1.655000 -7.503892e-05
1.658000 -7.128852e-05
1.661000 -6.657590e-05
1.664000 -6.096291e-05
1.667000 -5.452281e-05
1.670000 -4.733934e-05
1.673000 -3.950577e-05
1.676000 -3.112377e-05
1.679000 -2.230226e-05
1.682000 -1.315608e-05
1.685000 -3.804659e-06
1.688000 5.629388e-06
1.691000 1.502176e-05
1.694000 2.424794e-05
1.697000 3.318475e-05
1.700000 4.171184e-05
1.703000 4.971320e-05
1.706000 5.707871e-05
1.709000 6.370548e-05
1.712000 6.949932e-05
1.715000 7.437599e-05
1.718000 7.826242e-05
1.721000 8.109781e-05
1.724000 8.283456e-05
1.727000 8.343913e-05
1.730000 8.289267e-05
1.733000 8.119152e-05
1.736000 7.834749e-05
1.739000 7.438800e-05
1.742000 6.935597e-05
1.745000 6.330952e-05
1.748000 5.632145e-05
1.751000 4.847855e-05
1.754000 3.988063e-05
1.757000 3.063946e-05
1.760000 2.087736e-05
1.763000 1.072578e-05
1.766000 3.236032e-07
1.769000 -1.018466e-05
1.772000 -2.065081e-05
1.775000 -3.092496e-05
1.778000 -4.085769e-05
1.781000 -5.030216e-05
1.784000 -5.911628e-05
1.787000 -6.716487e-05
1.790000 -7.432176e-05
1.793000 -8.047179e-05
1.796000 -8.551271e-05
1.799000 -8.935694e-05
1.802000 -9.193313e-05
1.805000 -9.318753e-05
1.808000 -9.308511e-05
1.811000 -9.161043e-05
1.814000 -8.876824e-05
1.817000 -8.458373e-05
1.820000 -7.910258e-05
1.823000 -7.239060e-05
1.826000 -6.453305e-05
1.829000 -5.563373e-05
1.832000 -4.581369e-05
1.835000 -3.520966e-05
1.838000 -2.397222e-05
1.841000 -1.226368e-05
1.844000 -2.558315e-07
1.847000 1.187264e-05
1.850000 2.393878e-05
1.853000 3.575813e-05
1.856000 4.714761e-05
1.859000 5.792840e-05
1.862000 6.792878e-05
1.865000 7.698694e-05
1.868000 8.495368e-05
1.871000 9.169490e-05
1.874000 9.709398e-05
1.877000 1.010538e-04
1.880000 1.034987e-04
1.883000 1.043756e-04
1.886000 1.036557e-04
1.889000 1.013346e-04
1.892000 9.743320e-05
1.895000 9.199749e-05
1.898000 8.509807e-05
1.901000 7.682936e-05
1.904000 6.730837e-05
1.907000 5.667309e-05
1.910000 4.508050e-05
1.913000 3.270425e-05
1.916000 1.973208e-05
1.919000 6.362899e-06
1.922000 -7.196260e-06
1.925000 -2.073352e-05
1.928000 -3.403552e-05
1.931000 -4.689087e-05
1.934000 -5.909353e-05
1.937000 -7.044626e-05
1.940000 -8.076383e-05
1.943000 -8.987618e-05
1.946000 -9.763125e-05
1.949000 -1.038976e-04
1.952000 -1.085668e-04
1.955000 -1.115553e-04
1.958000 -1.128057e-04
1.961000 -1.122886e-04
1.964000 -1.100023e-04
1.967000 -1.059741e-04
1.970000 -1.002590e-04
1.973000 -9.293966e-05
1.976000 -8.412503e-05
1.979000 -7.394870e-05
1.982000 -6.256687e-05
1.985000 -5.015596e-05
1.988000 -3.690979e-05
1.991000 -2.303656e-05
1.994000 -8.755455e-06
1.997000 5.706853e-06
2.000000 2.011988e-05
2.003000 3.425311e-05
2.006000 4.787972e-05
2.009000 6.078037e-05
2.012000 7.274679e-05
2.015000 8.358521e-05
2.018000 9.311964e-05
2.021000 1.011948e-04
2.024000 1.076786e-04
2.027000 1.124646e-04
2.030000 1.154737e-04
2.033000 1.166554e-04
2.036000 1.159890e-04
2.039000 1.134836e-04
2.042000 1.091782e-04
2.045000 1.031414e-04
2.048000 9.546978e-05
2.051000 8.628678e-05
2.054000 7.574052e-05
2.057000 6.400146e-05
2.060000 5.125963e-05
2.063000 3.772154e-05
2.066000 2.360681e-05
2.069000 9.144605e-06
2.072000 -5.430101e-06
2.075000 -1.988036e-05
2.078000 -3.397107e-05
2.081000 -4.747284e-05
2.084000 -6.016565e-05
2.087000 -7.184242e-05
2.090000 -8.231235e-05
2.093000 -9.140393e-05
2.096000 -9.896767e-05
2.099000 -1.048784e-04
2.102000 -1.090374e-04
2.105000 -1.113734e-04
2.108000 -1.118441e-04
2.111000 -1.104365e-04
2.114000 -1.071668e-04
2.117000 -1.020800e-04
2.120000 -9.524921e-05
2.123000 -8.677376e-05
2.126000 -7.677775e-05
2.129000 -6.540760e-05
2.132000 -5.282948e-05
2.135000 -3.922634e-05
2.138000 -2.479471e-05
2.141000 -9.741271e-06
2.144000 5.720752e-06
2.147000 2.137524e-05
2.150000 3.700691e-05
2.153000 5.240497e-05
2.156000 6.736669e-05
2.159000 8.170084e-05
2.162000 9.523090e-05
2.165000 1.077980e-04
2.168000 1.192634e-04
2.171000 1.295111e-04
2.174000 1.384492e-04
2.177000 1.460117e-04
2.180000 1.521595e-04
2.183000 1.568807e-04
2.186000 1.601905e-04
2.189000 1.621312e-04
2.192000 1.627710e-04
2.195000 1.622028e-04
2.198000 1.605420e-04
2.201000 1.579251e-04
2.204000 1.545063e-04
2.207000 1.504553e-04
2.210000 1.459537e-04
2.213000 1.411922e-04
2.216000 1.363666e-04
2.219000 1.316743e-04
2.222000 1.273111e-04
2.225000 1.234668e-04
2.228000 1.203225e-04
2.231000 1.180465e-04
2.234000 1.167914e-04
2.237000 1.166909e-04
2.240000 1.178575e-04
2.243000 1.203795e-04
2.246000 1.243195e-04
2.249000 1.297126e-04
2.252000 1.365650e-04
2.255000 1.448535e-04
2.258000 1.545251e-04
2.261000 1.654969e-04
2.264000 1.776571e-04
2.267000 1.908655e-04
2.270000 2.049553e-04
2.273000 2.197349e-04
2.276000 2.349900e-04
2.279000 2.504859e-04
2.282000 2.659708e-04
2.285000 2.811787e-04
2.288000 2.958324e-04
2.291000 3.096475e-04
2.294000 3.223356e-04
2.297000 3.336079e-04
2.300000 3.431794e-04
2.303000 3.507718e-04
2.306000 3.561176e-04
2.309000 3.589634e-04
2.312000 3.590728e-04
2.315000 3.562304e-04
2.318000 3.502434e-04
2.321000 3.409451e-04
2.324000 3.281970e-04
2.327000 3.118904e-04
2.330000 2.919481e-04
2.333000 2.683261e-04
2.336000 2.410141e-04
2.339000 2.100359e-04
2.342000 1.754504e-04
2.345000 1.373505e-04
2.348000 9.586322e-05
2.351000 5.114884e-05
2.354000 3.399641e-06
2.357000 -4.716135e-05
2.360000 -1.002820e-04
2.363000 -1.556832e-04
2.366000 -2.130603e-04
2.369000 -2.720863e-04
2.372000 -3.324134e-04
2.375000 -3.936762e-04
2.378000 -4.554942e-04
2.381000 -5.174743e-04
2.384000 -5.792138e-04
2.387000 -6.403035e-04
2.390000 -7.003302e-04
2.393000 -7.588796e-04
2.396000 -8.155393e-04
2.399000 -8.699017e-04
2.402000 -9.215666e-04
2.405000 -9.701436e-04
2.408000 -1.015256e-03
2.411000 -1.056540e-03
2.414000 -1.093653e-03
2.417000 -1.126270e-03
2.420000 -1.154090e-03
2.423000 -1.176835e-03
2.426000 -1.194256e-03
2.429000 -1.206129e-03
2.432000 -1.212264e-03
2.435000 -1.212501e-03
2.438000 -1.206716e-03
2.441000 -1.194817e-03
2.444000 -1.176750e-03
2.447000 -1.152499e-03
2.450000 -1.122087e-03
2.453000 -1.085573e-03
2.456000 -1.043058e-03
2.459000 -9.946835e-04
2.462000 -9.406300e-04
2.465000 -8.811182e-04
2.468000 -8.164081e-04
2.471000 -7.467989e-04
2.474000 -6.726271e-04
2.477000 -5.942662e-04
2.480000 -5.121244e-04
2.483000 -4.266427e-04
2.486000 -3.382932e-04
2.489000 -2.475760e-04
2.492000 -1.550167e-04
2.495000 -6.116265e-05
2.498000 3.341982e-05
2.501000 1.281497e-04
2.504000 2.224353e-04
2.507000 3.156784e-04
2.510000 4.072788e-04
2.513000 4.966392e-04
2.516000 5.831698e-04
2.519000 6.662936e-04
2.522000 7.454508e-04
2.525000 8.201046e-04
2.528000 8.897454e-04
2.531000 9.538961e-04
2.534000 1.012117e-03
2.537000 1.064009e-03
2.540000 1.109221e-03
2.543000 1.147448e-03
2.546000 1.178441e-03
2.549000 1.202007e-03
2.552000 1.218010e-03
2.555000 1.226376e-03
2.558000 1.227094e-03
2.561000 1.220215e-03
2.564000 1.205852e-03
2.567000 1.184184e-03
2.570000 1.155450e-03
2.573000 1.119949e-03
2.576000 1.078039e-03
2.579000 1.030130e-03
2.582000 9.766866e-04
2.585000 9.182174e-04
2.588000 8.552736e-04
2.591000 7.884430e-04
2.594000 7.183441e-04
2.597000 6.456198e-04
