-0.400000 7.350117e-06
-0.397000 -1.415276e-05
-0.394000 -3.476339e-05
-0.391000 -5.413249e-05
-0.388000 -7.193580e-05
-0.385000 -8.787954e-05
-0.382000 -1.017053e-04
-0.379000 -1.131941e-04
-0.376000 -1.221702e-04
-0.373000 -1.285034e-04
-0.370000 -1.321111e-04
-0.367000 -1.329592e-04
-0.364000 -1.310621e-04
-0.361000 -1.264824e-04
-0.358000 -1.193288e-04
-0.355000 -1.097541e-04
-0.352000 -9.795195e-05
-0.349000 -8.415297e-05
-0.346000 -6.862048e-05
-0.343000 -5.164546e-05
-0.340000 -3.354123e-05
-0.337000 -1.463767e-05
-0.334000 4.724670e-06
-0.331000 2.420069e-05
-0.328000 4.344680e-05
-0.325000 6.212694e-05
-0.322000 7.991840e-05
-0.319000 9.651730e-05
-0.316000 1.116437e-04
-0.313000 1.250464e-04
-0.310000 1.365068e-04
-0.307000 1.458425e-04
-0.304000 1.529104e-04
-0.301000 1.576080e-04
-0.298000 1.598759e-04
-0.295000 1.596973e-04
-0.292000 1.570985e-04
-0.289000 1.521479e-04
-0.286000 1.449542e-04
-0.283000 1.356642e-04
-0.280000 1.244595e-04
-0.277000 1.115537e-04
-0.274000 9.718761e-05
-0.271000 8.162496e-05
-0.268000 6.514770e-05
-0.265000 4.805079e-05
-0.262000 3.063684e-05
-0.259000 1.321083e-05
-0.256000 -3.925272e-06
-0.253000 -2.047778e-05
-0.250000 -3.616630e-05
-0.247000 -5.072849e-05
-0.244000 -6.392446e-05
-0.241000 -7.554073e-05
-0.238000 -8.539366e-05
-0.235000 -9.333233e-05
-0.232000 -9.924087e-05
-0.229000 -1.030401e-04
-0.226000 -1.046884e-04
-0.223000 -1.041822e-04
-0.220000 -1.015556e-04
-0.217000 -9.687943e-05
-0.214000 -9.025932e-05
-0.211000 -8.183387e-05
-0.208000 -7.177164e-05
-0.205000 -6.026799e-05
-0.202000 -4.754135e-05
-0.199000 -3.382916e-05
-0.196000 -1.938352e-05
-0.193000 -4.466650e-06
-0.190000 1.065381e-05
-0.187000 2.570954e-05
-0.184000 4.043619e-05
-0.181000 5.457800e-05
-0.178000 6.789216e-05
-0.175000 8.015290e-05
-0.172000 9.115526e-05
-0.169000 1.007185e-04
-0.166000 1.086888e-04
-0.163000 1.149420e-04
-0.160000 1.193853e-04
-0.157000 1.219582e-04
-0.154000 1.226340e-04
-0.151000 1.214191e-04
-0.148000 1.183531e-04
-0.145000 1.135075e-04
-0.142000 1.069842e-04
-0.139000 9.891351e-05
-0.136000 8.945132e-05
-0.133000 7.877637e-05
-0.130000 6.708676e-05
-0.127000 5.459636e-05
-0.124000 4.153087e-05
-0.121000 2.812378e-05
-0.118000 1.461222e-05
-0.115000 1.232776e-06
-0.112000 -1.178265e-05
-0.109000 -2.421083e-05
-0.106000 -3.584102e-05
-0.103000 -4.647851e-05
-0.100000 -5.594791e-05
-0.097000 -6.409595e-05
-0.094000 -7.079402e-05
-0.091000 -7.594012e-05
-0.088000 -7.946040e-05
-0.085000 -8.131020e-05
-0.082000 -8.147452e-05
-0.079000 -7.996801e-05
-0.076000 -7.683444e-05
-0.073000 -7.214566e-05
-0.070000 -6.600007e-05
-0.067000 -5.852066e-05
-0.064000 -4.985265e-05
-0.061000 -4.016071e-05
-0.058000 -2.962596e-05
-0.055000 -1.844260e-05
-0.052000 -6.814456e-06
-0.049000 5.048713e-06
-0.046000 1.693490e-05
-0.043000 2.863357e-05
-0.040000 3.993936e-05
-0.037000 5.065556e-05
-0.034000 6.059750e-05
-0.031000 6.959570e-05
-0.028000 7.749863e-05
-0.025000 8.417525e-05
-0.022000 8.951710e-05
-0.019000 9.344003e-05
-0.016000 9.588540e-05
-0.013000 9.682099e-05
-0.010000 9.624124e-05
-0.007000 9.416720e-05
-0.004000 9.064592e-05
-0.001000 8.574942e-05
0.002000 7.957326e-05
0.005000 7.223464e-05
0.008000 6.387022e-05
0.011000 5.463361e-05
0.014000 4.469251e-05
0.017000 3.422571e-05
0.020000 2.341989e-05
0.023000 1.246631e-05
0.026000 1.557453e-06
0.029000 -9.116352e-06
0.032000 -1.937022e-05
0.035000 -2.902787e-05
0.038000 -3.792467e-05
0.041000 -4.591038e-05
0.044000 -5.285168e-05
0.047000 -5.863436e-05
0.050000 -6.316521e-05
0.053000 -6.637344e-05
0.056000 -6.821182e-05
0.059000 -6.865728e-05
0.062000 -6.771123e-05
0.065000 -6.539930e-05
0.068000 -6.177079e-05
0.071000 -5.689764e-05
0.074000 -5.087306e-05
0.077000 -4.380976e-05
0.080000 -3.583790e-05
0.083000 -2.710270e-05
0.086000 -1.776187e-05
0.089000 -7.982779e-06
0.092000 2.060492e-06
0.095000 1.219020e-05
0.098000 2.222803e-05
0.101000 3.199821e-05
0.104000 4.133049e-05
0.107000 5.006309e-05
0.110000 5.804544e-05
0.113000 6.514071e-05
0.116000 7.122813e-05
0.119000 7.620495e-05
0.122000 7.998817e-05
0.125000 8.251580e-05
0.128000 8.374792e-05
0.131000 8.366716e-05
0.134000 8.227899e-05
0.137000 7.961144e-05
0.140000 7.571453e-05
0.143000 7.065935e-05
0.146000 6.453668e-05
0.149000 5.745542e-05
0.152000 4.954054e-05
0.155000 4.093096e-05
0.158000 3.177705e-05
0.161000 2.223803e-05
0.164000 1.247918e-05
0.167000 2.669010e-06
0.170000 -7.023661e-06
0.173000 -1.643258e-05
0.176000 -2.539691e-05
0.179000 -3.376395e-05
0.182000 -4.139170e-05
0.185000 -4.815130e-05
0.188000 -5.392912e-05
0.191000 -5.862868e-05
0.194000 -6.217224e-05
0.197000 -6.450204e-05
0.200000 -6.558126e-05
0.203000 -6.539450e-05
0.206000 -6.394807e-05
0.209000 -6.126975e-05
0.212000 -5.740827e-05
0.215000 -5.243241e-05
0.218000 -4.642982e-05
0.221000 -3.950541e-05
0.224000 -3.177958e-05
0.227000 -2.338611e-05
0.230000 -1.446987e-05
0.233000 -5.184356e-06
0.236000 4.310952e-06
0.239000 1.385326e-05
0.242000 2.327923e-05
0.245000 3.242772e-05
0.248000 4.114246e-05
0.251000 4.927470e-05
0.254000 5.668563e-05
0.257000 6.324867e-05
0.260000 6.885158e-05
0.263000 7.339819e-05
0.266000 7.681000e-05
0.269000 7.902735e-05
0.272000 8.001033e-05
0.275000 7.973927e-05
0.278000 7.821498e-05
0.281000 7.545851e-05
0.284000 7.151059e-05
0.287000 6.643078e-05
0.290000 6.029615e-05
0.293000 5.319973e-05
0.296000 4.524862e-05
0.299000 3.656180e-05
0.302000 2.726772e-05
0.305000 1.750162e-05
0.308000 7.402717e-06
0.311000 -2.888792e-06
0.314000 -1.323484e-05
0.317000 -2.350268e-05
0.320000 -3.356809e-05
0.323000 -4.331865e-05
0.326000 -5.265689e-05
0.329000 -6.150351e-05
0.332000 -6.980040e-05
0.335000 -7.751362e-05
0.338000 -8.463624e-05
0.341000 -9.119104e-05
0.344000 -9.723306e-05
0.347000 -1.028520e-04
0.350000 -1.081745e-04
0.353000 -1.133662e-04
0.356000 -1.186339e-04
0.359000 -1.242269e-04
0.362000 -1.304398e-04
0.365000 -1.376129e-04
0.368000 -1.461353e-04
0.371000 -1.564452e-04
0.374000 -1.690329e-04
0.377000 -1.844415e-04
0.380000 -2.032695e-04
0.383000 -2.261726e-04
0.386000 -2.538657e-04
0.389000 -2.871254e-04
0.392000 -3.267924e-04
0.395000 -3.737745e-04
0.398000 -4.290491e-04
0.401000 -4.936669e-04
0.404000 -5.687545e-04
0.407000 -6.555185e-04
0.410000 -7.552484e-04
0.413000 -8.693209e-04
0.416000 -9.992024e-04
0.419000 -1.146453e-03
0.422000 -1.312730e-03
0.425000 -1.499789e-03
0.428000 -1.709488e-03
0.431000 -1.943787e-03
0.434000 -2.204749e-03
0.437000 -2.494541e-03
0.440000 -2.815432e-03
0.443000 -3.169786e-03
0.446000 -3.560062e-03
0.449000 -3.988805e-03
0.452000 -4.458636e-03
0.455000 -4.972244e-03
0.458000 -5.532369e-03
0.461000 -6.141786e-03
0.464000 -6.803288e-03
0.467000 -7.519660e-03
0.470000 -8.293658e-03
0.473000 -9.127974e-03
0.476000 -1.002521e-02
0.479000 -1.098784e-02
0.482000 -1.201818e-02
0.485000 -1.311831e-02
0.488000 -1.429010e-02
0.491000 -1.553508e-02
0.494000 -1.685446e-02
0.497000 -1.824904e-02
0.500000 -1.971916e-02
0.503000 -2.126467e-02
0.506000 -2.288484e-02
0.509000 -2.457834e-02
0.512000 -2.634317e-02
0.515000 -2.817660e-02
0.518000 -3.007514e-02
0.521000 -3.203450e-02
0.524000 -3.404953e-02
0.527000 -3.611418e-02
0.530000 -3.822151e-02
0.533000 -4.036364e-02
0.536000 -4.253172e-02
0.539000 -4.471598e-02
0.542000 -4.690570e-02
0.545000 -4.908921e-02
0.548000 -5.125398e-02
0.551000 -5.338661e-02
0.554000 -5.547289e-02
0.557000 -5.749790e-02
0.560000 -5.944605e-02
0.563000 -6.130119e-02
0.566000 -6.304673e-02
0.569000 -6.466574e-02
0.572000 -6.614108e-02
0.575000 -6.745556e-02
0.578000 -6.859206e-02
0.581000 -6.953372e-02
0.584000 -7.026409e-02
0.587000 -7.076730e-02
0.590000 -7.102827e-02
0.593000 -7.103282e-02
0.596000 -7.076793e-02
0.599000 -7.022184e-02
0.602000 -6.938429e-02
0.605000 -6.824662e-02
0.608000 -6.680196e-02
0.611000 -6.504539e-02
0.614000 -6.297401e-02
0.617000 -6.058711e-02
0.620000 -5.788623e-02
0.623000 -5.487525e-02
0.626000 -5.156043e-02
0.629000 -4.795045e-02
0.632000 -4.405639e-02
0.635000 -3.989176e-02
0.638000 -3.547238e-02
0.641000 -3.081638e-02
0.644000 -2.594404e-02
0.647000 -2.087770e-02
0.650000 -1.564159e-02
0.653000 -1.026169e-02
0.656000 -4.765481e-03
0.659000 8.182251e-04
0.662000 6.459539e-03
0.665000 1.212774e-02
0.668000 1.779154e-02
0.671000 2.341933e-02
0.674000 2.897952e-02
0.677000 3.444073e-02
0.680000 3.977217e-02
0.683000 4.494382e-02
0.686000 4.992677e-02
0.689000 5.469347e-02
0.692000 5.921795e-02
0.695000 6.347606e-02
0.698000 6.744572e-02
0.701000 7.110705e-02
0.704000 7.444259e-02
0.707000 7.743742e-02
0.710000 8.007928e-02
0.713000 8.235866e-02
0.716000 8.426886e-02
0.719000 8.580600e-02
0.722000 8.696905e-02
0.725000 8.775982e-02
0.728000 8.818283e-02
0.731000 8.824533e-02
0.734000 8.795709e-02
0.737000 8.733037e-02
0.740000 8.637970e-02
0.743000 8.512173e-02
0.746000 8.357507e-02
0.749000 8.176004e-02
0.752000 7.969853e-02
0.755000 7.741372e-02
0.758000 7.492987e-02
0.761000 7.227214e-02
0.764000 6.946629e-02
0.767000 6.653853e-02
0.770000 6.351525e-02
0.773000 6.042283e-02
0.776000 5.728745e-02
0.779000 5.413488e-02
0.782000 5.099030e-02
0.785000 4.787818e-02
0.788000 4.482208e-02
0.791000 4.184453e-02
0.794000 3.896695e-02
0.797000 3.620950e-02
0.800000 3.359102e-02
0.803000 3.112898e-02
0.806000 2.883939e-02
0.809000 2.673679e-02
0.812000 2.483421e-02
0.815000 2.314317e-02
0.818000 2.167367e-02
0.821000 2.043421e-02
0.824000 1.943179e-02
0.827000 1.867198e-02
0.830000 1.815887e-02
0.833000 1.789519e-02
0.836000 1.788231e-02
0.839000 1.812027e-02
0.842000 1.860787e-02
0.845000 1.934264e-02
0.848000 2.032095e-02
0.851000 2.153800e-02
0.854000 2.298789e-02
0.857000 2.466364e-02
0.860000 2.655719e-02
0.863000 2.865950e-02
0.866000 3.096048e-02
0.869000 3.344910e-02
0.872000 3.611333e-02
0.875000 3.894023e-02
0.878000 4.191588e-02
0.881000 4.502545e-02
0.884000 4.825323e-02
0.887000 5.158255e-02
0.890000 5.499591e-02
0.893000 5.847490e-02
0.896000 6.200030e-02
0.899000 6.555203e-02
0.902000 6.910925e-02
0.905000 7.265035e-02
0.908000 7.615303e-02
0.911000 7.959434e-02
0.914000 8.295073e-02
0.917000 8.619815e-02
0.920000 8.931215e-02
0.923000 9.226790e-02
0.926000 9.504041e-02
0.929000 9.760455e-02
0.932000 9.993523e-02
0.935000 1.020075e-01
0.938000 1.037969e-01
0.941000 1.052792e-01
0.944000 1.064310e-01
0.947000 1.072296e-01
0.950000 1.076536e-01
0.953000 1.076824e-01
0.956000 1.072971e-01
0.959000 1.064804e-01
0.962000 1.052165e-01
0.965000 1.034920e-01
0.968000 1.012953e-01
0.971000 9.861740e-02
0.974000 9.545167e-02
0.977000 9.179423e-02
0.980000 8.764404e-02
0.983000 8.300301e-02
0.986000 7.787611e-02
0.989000 7.227151e-02
0.992000 6.620060e-02
0.995000 5.967808e-02
0.998000 5.272194e-02
1.001000 4.535348e-02
1.004000 3.759729e-02
1.007000 2.948115e-02
1.010000 2.103596e-02
1.013000 1.229562e-02
1.016000 3.296836e-03
1.019000 -5.920992e-03
1.022000 -1.531605e-02
1.025000 -2.484431e-02
1.028000 -3.445983e-02
1.031000 -4.411502e-02
1.034000 -5.376100e-02
1.037000 -6.334787e-02
1.040000 -7.282515e-02
1.043000 -8.214207e-02
1.046000 -9.124804e-02
1.049000 -1.000929e-01
1.052000 -1.086276e-01
1.055000 -1.168042e-01
1.058000 -1.245766e-01
1.061000 -1.319007e-01
1.064000 -1.387349e-01
1.067000 -1.450406e-01
1.070000 -1.507820e-01
1.073000 -1.559272e-01
1.076000 -1.604477e-01
1.079000 -1.643194e-01
1.082000 -1.675221e-01
1.085000 -1.700403e-01
1.088000 -1.718631e-01
1.091000 -1.729840e-01
1.094000 -1.734016e-01
1.097000 -1.731192e-01
1.100000 -1.721449e-01
1.103000 -1.704914e-01
1.106000 -1.681761e-01
1.109000 -1.652208e-01
1.112000 -1.616517e-01
1.115000 -1.574988e-01
1.118000 -1.527959e-01
1.121000 -1.475804e-01
1.124000 -1.418927e-01
1.127000 -1.357758e-01
1.130000 -1.292754e-01
1.133000 -1.224387e-01
1.136000 -1.153147e-01
1.139000 -1.079534e-01
1.142000 -1.004053e-01
1.145000 -9.272127e-02
1.148000 -8.495174e-02
1.151000 -7.714649e-02
1.154000 -6.935417e-02
1.157000 -6.162190e-02
1.160000 -5.399485e-02
1.163000 -4.651593e-02
1.166000 -3.922543e-02
1.169000 -3.216074e-02
1.172000 -2.535607e-02
1.175000 -1.884227e-02
1.178000 -1.264658e-02
1.181000 -6.792566e-03
1.184000 -1.299968e-03
1.187000 3.815330e-03
1.190000 8.541317e-03
1.193000 1.286982e-02
1.196000 1.679644e-02
1.199000 2.032043e-02
1.202000 2.344455e-02
1.205000 2.617489e-02
1.208000 2.852064e-02
1.211000 3.049388e-02
1.214000 3.210926e-02
1.217000 3.338378e-02
1.220000 3.433642e-02
1.223000 3.498789e-02
1.226000 3.536024e-02
1.229000 3.547661e-02
1.232000 3.536085e-02
1.235000 3.503725e-02
1.238000 3.453017e-02
1.241000 3.386383e-02
1.244000 3.306197e-02
1.247000 3.214764e-02
1.250000 3.114294e-02
1.253000 3.006881e-02
1.256000 2.894489e-02
1.259000 2.778933e-02
1.262000 2.661871e-02
1.265000 2.544792e-02
1.268000 2.429009e-02
1.271000 2.315663e-02
1.274000 2.205713e-02
1.277000 2.099948e-02
1.280000 1.998984e-02
1.283000 1.903278e-02
1.286000 1.813133e-02
1.289000 1.728712e-02
1.292000 1.650048e-02
1.295000 1.577062e-02
1.298000 1.509571e-02
1.301000 1.447311e-02
1.304000 1.389948e-02
1.307000 1.337092e-02
1.310000 1.288316e-02
1.313000 1.243169e-02
1.316000 1.201188e-02
1.319000 1.161915e-02
1.322000 1.124900e-02
1.325000 1.089721e-02
1.328000 1.055985e-02
1.331000 1.023340e-02
1.334000 9.914762e-03
1.337000 9.601317e-03
1.340000 9.290956e-03
1.343000 8.982075e-03
1.346000 8.673574e-03
1.349000 8.364836e-03
1.352000 8.055696e-03
1.355000 7.746403e-03
1.358000 7.437573e-03
1.361000 7.130129e-03
1.364000 6.825250e-03
1.367000 6.524303e-03
1.370000 6.228782e-03
1.373000 5.940251e-03
1.376000 5.660277e-03
1.379000 5.390382e-03
1.382000 5.131988e-03
1.385000 4.886374e-03
1.388000 4.654639e-03
1.391000 4.437671e-03
1.394000 4.236125e-03
1.397000 4.050409e-03
1.400000 3.880678e-03
1.403000 3.726835e-03
1.406000 3.588536e-03
1.409000 3.465213e-03
1.412000 3.356083e-03
1.415000 3.260186e-03
1.418000 3.176403e-03
1.421000 3.103494e-03
1.424000 3.040132e-03
1.427000 2.984935e-03
1.430000 2.936501e-03
1.433000 2.893443e-03
1.436000 2.854417e-03
1.439000 2.818154e-03
1.442000 2.783478e-03
1.445000 2.749337e-03
1.448000 2.714808e-03
1.451000 2.679118e-03
1.454000 2.641646e-03
1.457000 2.601929e-03
1.460000 2.559654e-03
1.463000 2.514660e-03
1.466000 2.466924e-03
1.469000 2.416547e-03
1.472000 2.363741e-03
1.475000 2.308812e-03
1.478000 2.252137e-03
1.481000 2.194150e-03
1.484000 2.135316e-03
1.487000 2.076117e-03
1.490000 2.017032e-03
1.493000 1.958520e-03
1.496000 1.901005e-03
1.499000 1.844864e-03
1.502000 1.790421e-03
1.505000 1.737932e-03
1.508000 1.687590e-03
1.511000 1.639518e-03
1.514000 1.593772e-03
1.517000 1.550344e-03
1.520000 1.509169e-03
1.523000 1.470134e-03
1.526000 1.433083e-03
1.529000 1.397831e-03
1.532000 1.364175e-03
1.535000 1.331902e-03
1.538000 1.300802e-03
1.541000 1.270679e-03
1.544000 1.241358e-03
1.547000 1.212692e-03
1.550000 1.184571e-03
1.553000 1.156927e-03
1.556000 1.129732e-03
1.559000 1.103003e-03
1.562000 1.076797e-03
1.565000 1.051212e-03
1.568000 1.026376e-03
1.571000 1.002449e-03
1.574000 9.796061e-04
1.577000 9.580354e-04
1.580000 9.379262e-04
1.583000 9.194596e-04
1.586000 9.027994e-04
1.589000 8.880833e-04
1.592000 8.754138e-04
1.595000 8.648521e-04
1.598000 8.564115e-04
1.601000 8.500533e-04
1.604000 8.456845e-04
1.607000 8.431566e-04
1.610000 8.422673e-04
1.613000 8.427631e-04
1.616000 8.443441e-04
1.619000 8.466710e-04
1.622000 8.493728e-04
1.625000 8.520559e-04
1.628000 8.543148e-04
1.631000 8.557427e-04
1.634000 8.559432e-04
1.637000 8.545413e-04
1.640000 8.511944e-04
1.643000 8.456033e-04
1.646000 8.375208e-04
1.649000 8.267604e-04
1.652000 8.132025e-04
1.655000 7.967997e-04
1.658000 7.775796e-04
1.661000 7.556458e-04
1.664000 7.311770e-04
1.667000 7.044234e-04
1.670000 6.757024e-04
1.673000 6.453910e-04
1.676000 6.139176e-04
1.679000 5.817516e-04
1.682000 5.493923e-04
1.685000 5.173566e-04
1.688000 4.861661e-04
1.691000 4.563344e-04
1.694000 4.283536e-04
1.697000 4.026824e-04
1.700000 3.797338e-04
1.703000 3.598647e-04
1.706000 3.433665e-04
1.709000 3.304575e-04
1.712000 3.212769e-04
1.715000 3.158806e-04
1.718000 3.142399e-04
1.721000 3.162413e-04
1.724000 3.216891e-04
1.727000 3.303094e-04
1.730000 3.417569e-04
1.733000 3.556229e-04
1.736000 3.714449e-04
1.739000 3.887174e-04
1.742000 4.069043e-04
1.745000 4.254516e-04
1.748000 4.438005e-04
1.751000 4.614006e-04
1.754000 4.777231e-04
1.757000 4.922734e-04
1.760000 5.046021e-04
1.763000 5.143163e-04
1.766000 5.210879e-04
1.769000 5.246614e-04
1.772000 5.248596e-04
1.775000 5.215868e-04
1.778000 5.148313e-04
1.781000 5.046643e-04
1.784000 4.912381e-04
1.787000 4.747819e-04
1.790000 4.555952e-04
1.793000 4.340407e-04
1.796000 4.105350e-04
1.799000 3.855380e-04
1.802000 3.595417e-04
1.805000 3.330583e-04
1.808000 3.066079e-04
1.811000 2.807057e-04
1.814000 2.558503e-04
1.817000 2.325115e-04
1.820000 2.111197e-04
1.823000 1.920560e-04
1.826000 1.756435e-04
1.829000 1.621405e-04
1.832000 1.517347e-04
1.835000 1.445395e-04
1.838000 1.405922e-04
1.841000 1.398541e-04
1.844000 1.422116e-04
1.847000 1.474805e-04
1.850000 1.554105e-04
1.853000 1.656922e-04
1.856000 1.779651e-04
1.859000 1.918268e-04
1.862000 2.068429e-04
1.865000 2.225579e-04
1.868000 2.385062e-04
1.871000 2.542233e-04
1.874000 2.692574e-04
1.877000 2.831793e-04
1.880000 2.955931e-04
1.883000 3.061452e-04
1.886000 3.145321e-04
1.889000 3.205074e-04
1.892000 3.238873e-04
1.895000 3.245541e-04
1.898000 3.224586e-04
1.901000 3.176205e-04
1.904000 3.101274e-04
1.907000 3.001323e-04
1.910000 2.878486e-04
1.913000 2.735455e-04
1.916000 2.575400e-04
1.919000 2.401896e-04
1.922000 2.218832e-04
1.925000 2.030312e-04
1.928000 1.840557e-04
1.931000 1.653803e-04
1.934000 1.474196e-04
1.937000 1.305693e-04
1.940000 1.151970e-04
1.943000 1.016333e-04
1.946000 9.016374e-05
1.949000 8.102271e-05
1.952000 7.438747e-05
1.955000 7.037430e-05
1.958000 6.903588e-05
1.961000 7.036018e-05
1.964000 7.427088e-05
1.967000 8.062931e-05
1.970000 8.923786e-05
1.973000 9.984475e-05
1.976000 1.121501e-04
1.979000 1.258129e-04
1.982000 1.404593e-04
1.985000 1.556913e-04
1.988000 1.710964e-04
1.991000 1.862566e-04
1.994000 2.007592e-04
1.997000 2.142056e-04
2.000000 2.262211e-04
2.003000 2.364636e-04
2.006000 2.446317e-04
2.009000 2.504714e-04
2.012000 2.537827e-04
2.015000 2.544240e-04
2.018000 2.523155e-04
2.021000 2.474415e-04
2.024000 2.398507e-04
2.027000 2.296554e-04
2.030000 2.170293e-04
2.033000 2.022038e-04
2.036000 1.854626e-04
2.039000 1.671360e-04
2.042000 1.475934e-04
2.045000 1.272352e-04
2.048000 1.064838e-04
2.051000 8.577461e-05
2.054000 6.554605e-05
2.057000 4.622994e-05
2.060000 2.824190e-05
2.063000 1.197200e-05
2.066000 -2.223958e-06
2.069000 -1.403245e-05
2.072000 -2.318937e-05
2.075000 -2.948605e-05
2.078000 -3.277415e-05
2.081000 -3.296922e-05
2.084000 -3.005286e-05
2.087000 -2.407354e-05
2.090000 -1.514586e-05
2.093000 -3.448548e-06
2.096000 1.077911e-05
2.099000 2.724199e-05
2.102000 4.559514e-05
2.105000 6.545085e-05
2.108000 8.638662e-05
2.111000 1.079540e-04
2.114000 1.296876e-04
2.117000 1.511155e-04
2.120000 1.717682e-04
2.123000 1.911892e-04
2.126000 2.089442e-04
2.129000 2.246306e-04
2.132000 2.378855e-04
2.135000 2.483941e-04
2.138000 2.558957e-04
2.141000 2.601901e-04
2.144000 2.611413e-04
2.147000 2.586809e-04
2.150000 2.528102e-04
2.153000 2.435994e-04
2.156000 2.311878e-04
2.159000 2.157801e-04
2.162000 1.976431e-04
2.165000 1.771004e-04
2.168000 1.545261e-04
2.171000 1.303375e-04
2.174000 1.049864e-04
2.177000 7.895096e-05
2.180000 5.272531e-05
2.183000 2.681032e-05
2.186000 1.703363e-06
2.189000 -2.211158e-05
2.192000 -4.417360e-05
2.195000 -6.405405e-05
2.198000 -8.136518e-05
2.201000 -9.576787e-05
2.204000 -1.069785e-04
2.207000 -1.147747e-04
2.210000 -1.189996e-04
2.213000 -1.195656e-04
2.216000 -1.164556e-04
2.219000 -1.097239e-04
2.222000 -9.949501e-05
2.225000 -8.596161e-05
2.228000 -6.938059e-05
2.231000 -5.006832e-05
2.234000 -2.839454e-05
2.237000 -4.775249e-06
2.240000 2.033529e-05
2.243000 4.645333e-05
2.246000 7.307490e-05
2.249000 9.968556e-05
2.252000 1.257703e-04
2.255000 1.508233e-04
2.258000 1.743578e-04
2.261000 1.959154e-04
2.264000 2.150747e-04
2.267000 2.314596e-04
2.270000 2.447462e-04
2.273000 2.546690e-04
2.276000 2.610260e-04
2.279000 2.636825e-04
2.282000 2.625737e-04
2.285000 2.577056e-04
2.288000 2.491550e-04
2.291000 2.370679e-04
2.294000 2.216568e-04
2.297000 2.031964e-04
2.300000 1.820186e-04
2.303000 1.585058e-04
2.306000 1.330840e-04
2.309000 1.062145e-04
2.312000 7.838509e-05
2.315000 5.010129e-05
2.318000 2.187640e-05
2.321000 -5.777874e-06
2.324000 -3.236105e-05
2.327000 -5.739315e-05
2.330000 -8.042359e-05
2.333000 -1.010395e-04
2.336000 -1.188733e-04
2.339000 -1.336093e-04
2.342000 -1.449897e-04
2.345000 -1.528188e-04
2.348000 -1.569666e-04
2.351000 -1.573711e-04
2.354000 -1.540391e-04
2.357000 -1.470458e-04
2.360000 -1.365334e-04
2.363000 -1.227078e-04
2.366000 -1.058350e-04
2.369000 -8.623572e-05
2.372000 -6.427951e-05
2.375000 -4.037752e-05
2.378000 -1.497493e-05
2.381000 1.145739e-05
2.384000 3.843161e-05
2.387000 6.545191e-05
2.390000 9.202366e-05
2.393000 1.176624e-04
2.396000 1.419025e-04
2.399000 1.643060e-04
2.402000 1.844698e-04
2.405000 2.020334e-04
2.408000 2.166849e-04
2.411000 2.281668e-04
2.414000 2.362797e-04
2.417000 2.408865e-04
2.420000 2.419137e-04
2.423000 2.393529e-04
2.426000 2.332607e-04
2.429000 2.237568e-04
2.432000 2.110217e-04
2.435000 1.952933e-04
2.438000 1.768619e-04
2.441000 1.560649e-04
2.444000 1.332804e-04
2.447000 1.089200e-04
2.450000 8.342116e-05
2.453000 5.723940e-05
2.456000 3.083973e-05
2.459000 4.688328e-06
2.462000 -2.075584e-05
2.465000 -4.504924e-05
2.468000 -6.777164e-05
2.471000 -8.853345e-05
2.474000 -1.069826e-04
2.477000 -1.228103e-04
2.480000 -1.357569e-04
2.483000 -1.456153e-04
2.486000 -1.522351e-04
2.489000 -1.555244e-04
2.492000 -1.554512e-04
2.495000 -1.520434e-04
2.498000 -1.453881e-04
2.501000 -1.356294e-04
2.504000 -1.229652e-04
2.507000 -1.076439e-04
2.510000 -8.995902e-05
2.513000 -7.024370e-05
2.516000 -4.886468e-05
2.519000 -2.621535e-05
2.522000 -2.708596e-06
2.525000 2.123074e-05
2.528000 4.517348e-05
2.531000 6.869374e-05
2.534000 9.137652e-05
2.537000 1.128249e-04
2.540000 1.326671e-04
2.543000 1.505627e-04
2.546000 1.662083e-04
2.549000 1.793429e-04
2.552000 1.897520e-04
2.555000 1.972709e-04
2.558000 2.017874e-04
2.561000 2.032431e-04
2.564000 2.016340e-04
2.567000 1.970105e-04
2.570000 1.894753e-04
2.573000 1.791817e-04
2.576000 1.663302e-04
2.579000 1.511646e-04
2.582000 1.339673e-04
2.585000 1.150540e-04
2.588000 9.476764e-05
2.591000 7.347233e-05
2.594000 5.154668e-05
2.597000 2.937693e-05
