-0.400000 -1.637359e-04
-0.397000 -1.425736e-04
-0.394000 -1.224671e-04
-0.391000 -1.037450e-04
-0.388000 -8.670878e-05
-0.385000 -7.162741e-05
-0.382000 -5.873322e-05
-0.379000 -4.821802e-05
-0.376000 -4.023016e-05
-0.373000 -3.487227e-05
-0.370000 -3.219995e-05
-0.367000 -3.222121e-05
-0.364000 -3.489683e-05
-0.361000 -4.014145e-05
-0.358000 -4.782555e-05
-0.355000 -5.777818e-05
-0.352000 -6.979032e-05
-0.349000 -8.361896e-05
-0.346000 -9.899169e-05
-0.343000 -1.156118e-04
-0.340000 -1.331636e-04
-0.337000 -1.513185e-04
-0.334000 -1.697404e-04
-0.331000 -1.880921e-04
-0.328000 -2.060409e-04
-0.325000 -2.232646e-04
-0.322000 -2.394571e-04
-0.319000 -2.543334e-04
-0.316000 -2.676343e-04
-0.313000 -2.791312e-04
-0.310000 -2.886291e-04
-0.307000 -2.959703e-04
-0.304000 -3.010363e-04
-0.301000 -3.037497e-04
-0.298000 -3.040752e-04
-0.295000 -3.020196e-04
-0.292000 -2.976314e-04
-0.289000 -2.909994e-04
-0.286000 -2.822509e-04
-0.283000 -2.715487e-04
-0.280000 -2.590885e-04
-0.277000 -2.450945e-04
-0.274000 -2.298156e-04
-0.271000 -2.135207e-04
-0.268000 -1.964935e-04
-0.265000 -1.790278e-04
-0.262000 -1.614220e-04
-0.259000 -1.439741e-04
-0.256000 -1.269760e-04
-0.253000 -1.107091e-04
-0.250000 -9.543877e-05
-0.247000 -8.141059e-05
-0.244000 -6.884577e-05
-0.241000 -5.793777e-05
-0.238000 -4.884910e-05
-0.235000 -4.170889e-05
-0.232000 -3.661091e-05
-0.229000 -3.361234e-05
-0.226000 -3.273317e-05
-0.223000 -3.395618e-05
-0.220000 -3.722769e-05
-0.217000 -4.245885e-05
-0.214000 -4.952756e-05
-0.211000 -5.828095e-05
-0.208000 -6.853840e-05
-0.205000 -8.009493e-05
-0.202000 -9.272508e-05
-0.199000 -1.061870e-04
-0.196000 -1.202270e-04
-0.193000 -1.345839e-04
-0.190000 -1.489937e-04
-0.187000 -1.631943e-04
-0.184000 -1.769302e-04
-0.181000 -1.899566e-04
-0.178000 -2.020436e-04
-0.175000 -2.129802e-04
-0.172000 -2.225778e-04
-0.169000 -2.306731e-04
-0.166000 -2.371309e-04
-0.163000 -2.418460e-04
-0.160000 -2.447446e-04
-0.157000 -2.457858e-04
-0.154000 -2.449612e-04
-0.151000 -2.422956e-04
-0.148000 -2.378455e-04
-0.145000 -2.316980e-04
-0.142000 -2.239693e-04
-0.139000 -2.148018e-04
-0.136000 -2.043618e-04
-0.133000 -1.928364e-04
-0.130000 -1.804296e-04
-0.127000 -1.673589e-04
-0.124000 -1.538512e-04
-0.121000 -1.401391e-04
-0.118000 -1.264563e-04
-0.115000 -1.130337e-04
-0.112000 -1.000956e-04
-0.109000 -8.785559e-05
-0.106000 -7.651302e-05
-0.103000 -6.624969e-05
-0.100000 -5.722679e-05
-0.097000 -4.958235e-05
-0.094000 -4.342899e-05
-0.091000 -3.885224e-05
-0.088000 -3.590930e-05
-0.085000 -3.462830e-05
-0.082000 -3.500809e-05
-0.079000 -3.701852e-05
-0.076000 -4.060127e-05
-0.073000 -4.567108e-05
-0.070000 -5.211753e-05
-0.067000 -5.980718e-05
-0.064000 -6.858610e-05
-0.061000 -7.828275e-05
-0.058000 -8.871111e-05
-0.055000 -9.967408e-05
-0.052000 -1.109670e-04
-0.049000 -1.223813e-04
-0.046000 -1.337081e-04
-0.043000 -1.447420e-04
-0.040000 -1.552845e-04
-0.037000 -1.651473e-04
-0.034000 -1.741558e-04
-0.031000 -1.821518e-04
-0.028000 -1.889962e-04
-0.025000 -1.945710e-04
-0.022000 -1.987817e-04
-0.019000 -2.015584e-04
-0.016000 -2.028565e-04
-0.013000 -2.026582e-04
-0.010000 -2.009716e-04
-0.007000 -1.978308e-04
-0.004000 -1.932953e-04
-0.001000 -1.874483e-04
0.002000 -1.803954e-04
0.005000 -1.722624e-04
0.008000 -1.631931e-04
0.011000 -1.533465e-04
0.014000 -1.428942e-04
0.017000 -1.320170e-04
0.020000 -1.209016e-04
0.023000 -1.097380e-04
0.026000 -9.871539e-05
0.029000 -8.801920e-05
0.032000 -7.782800e-05
0.035000 -6.831028e-05
0.038000 -5.962169e-05
0.041000 -5.190238e-05
0.044000 -4.527474e-05
0.047000 -3.984131e-05
0.050000 -3.568323e-05
0.053000 -3.285892e-05
0.056000 -3.140326e-05
0.059000 -3.132710e-05
0.062000 -3.261729e-05
0.065000 -3.523699e-05
0.068000 -3.912655e-05
0.071000 -4.420460e-05
0.074000 -5.036967e-05
0.077000 -5.750202e-05
0.080000 -6.546584e-05
0.083000 -7.411171e-05
0.086000 -8.327926e-05
0.089000 -9.279999e-05
0.092000 -1.025002e-04
0.095000 -1.122042e-04
0.098000 -1.217370e-04
0.101000 -1.309277e-04
0.104000 -1.396122e-04
0.107000 -1.476359e-04
0.110000 -1.548568e-04
0.113000 -1.611472e-04
0.116000 -1.663962e-04
0.119000 -1.705116e-04
0.122000 -1.734211e-04
0.125000 -1.750738e-04
0.128000 -1.754406e-04
0.131000 -1.745147e-04
0.134000 -1.723118e-04
0.137000 -1.688695e-04
0.140000 -1.642467e-04
0.143000 -1.585223e-04
0.146000 -1.517939e-04
0.149000 -1.441759e-04
0.152000 -1.357978e-04
0.155000 -1.268015e-04
0.158000 -1.173390e-04
0.161000 -1.075697e-04
0.164000 -9.765790e-05
0.167000 -8.776947e-05
0.170000 -7.806946e-05
0.173000 -6.871909e-05
0.176000 -5.987302e-05
0.179000 -5.167677e-05
0.182000 -4.426426e-05
0.185000 -3.775558e-05
0.188000 -3.225500e-05
0.191000 -2.784923e-05
0.194000 -2.460605e-05
0.197000 -2.257320e-05
0.200000 -2.177765e-05
0.203000 -2.222523e-05
0.206000 -2.390057e-05
0.209000 -2.676749e-05
0.212000 -3.076965e-05
0.215000 -3.583156e-05
0.218000 -4.185999e-05
0.221000 -4.874554e-05
0.224000 -5.636459e-05
0.227000 -6.458142e-05
0.230000 -7.325057e-05
0.233000 -8.221933e-05
0.236000 -9.133031e-05
0.239000 -1.004242e-04
0.242000 -1.093424e-04
0.245000 -1.179297e-04
0.248000 -1.260370e-04
0.251000 -1.335237e-04
0.254000 -1.402603e-04
0.257000 -1.461302e-04
0.260000 -1.510320e-04
0.263000 -1.548811e-04
0.266000 -1.576110e-04
0.269000 -1.591747e-04
0.272000 -1.595453e-04
0.275000 -1.587165e-04
0.278000 -1.567030e-04
0.281000 -1.535400e-04
0.284000 -1.492828e-04
0.287000 -1.440065e-04
0.290000 -1.378040e-04
0.293000 -1.307854e-04
0.296000 -1.230761e-04
0.299000 -1.148152e-04
0.302000 -1.061534e-04
0.305000 -9.725080e-05
0.308000 -8.827513e-05
0.311000 -7.939928e-05
0.314000 -7.079924e-05
0.317000 -6.265203e-05
0.320000 -5.513367e-05
0.323000 -4.841743e-05
0.326000 -4.267222e-05
0.329000 -3.806126e-05
0.332000 -3.474108e-05
0.335000 -3.286085e-05
0.338000 -3.256210e-05
0.341000 -3.397885e-05
0.344000 -3.723819e-05
0.347000 -4.246139e-05
0.350000 -4.976542e-05
0.353000 -5.926501e-05
0.356000 -7.107525e-05
0.359000 -8.531467e-05
0.362000 -1.021089e-04
0.365000 -1.215946e-04
0.368000 -1.439244e-04
0.371000 -1.692714e-04
0.374000 -1.978354e-04
0.377000 -2.298480e-04
0.380000 -2.655794e-04
0.383000 -3.053445e-04
0.386000 -3.495099e-04
0.389000 -3.985011e-04
0.392000 -4.528089e-04
0.395000 -5.129971e-04
0.398000 -5.797093e-04
0.401000 -6.536758e-04
0.404000 -7.357205e-04
0.407000 -8.267671e-04
0.410000 -9.278451e-04
0.413000 -1.040095e-03
0.416000 -1.164774e-03
0.419000 -1.303259e-03
0.422000 -1.457049e-03
0.425000 -1.627768e-03
0.428000 -1.817168e-03
0.431000 -2.027122e-03
0.434000 -2.259630e-03
0.437000 -2.516809e-03
0.440000 -2.800892e-03
0.443000 -3.114217e-03
0.446000 -3.459218e-03
0.449000 -3.838417e-03
0.452000 -4.254407e-03
0.455000 -4.709833e-03
0.458000 -5.207379e-03
0.461000 -5.749741e-03
0.464000 -6.339606e-03
0.467000 -6.979622e-03
0.470000 -7.672372e-03
0.473000 -8.420336e-03
0.476000 -9.225859e-03
0.479000 -1.009111e-02
0.482000 -1.101806e-02
0.485000 -1.200839e-02
0.488000 -1.306352e-02
0.491000 -1.418449e-02
0.494000 -1.537195e-02
0.497000 -1.662613e-02
0.500000 -1.794674e-02
0.503000 -1.933297e-02
0.506000 -2.078339e-02
0.509000 -2.229597e-02
0.512000 -2.386797e-02
0.515000 -2.549593e-02
0.518000 -2.717565e-02
0.521000 -2.890211e-02
0.524000 -3.066948e-02
0.527000 -3.247106e-02
0.530000 -3.429931e-02
0.533000 -3.614582e-02
0.536000 -3.800129e-02
0.539000 -3.985556e-02
0.542000 -4.169764e-02
0.545000 -4.351571e-02
0.548000 -4.529721e-02
0.551000 -4.702882e-02
0.554000 -4.869660e-02
0.557000 -5.028601e-02
0.560000 -5.178204e-02
0.563000 -5.316925e-02
0.566000 -5.443198e-02
0.569000 -5.555435e-02
0.572000 -5.652051e-02
0.575000 -5.731469e-02
0.578000 -5.792140e-02
0.581000 -5.832557e-02
0.584000 -5.851270e-02
0.587000 -5.846905e-02
0.590000 -5.818180e-02
0.593000 -5.763919e-02
0.596000 -5.683072e-02
0.599000 -5.574730e-02
0.602000 -5.438137e-02
0.605000 -5.272712e-02
0.608000 -5.078053e-02
0.611000 -4.853958e-02
0.614000 -4.600429e-02
0.617000 -4.317685e-02
0.620000 -4.006166e-02
0.623000 -3.666542e-02
0.626000 -3.299710e-02
0.629000 -2.906801e-02
0.632000 -2.489173e-02
0.635000 -2.048408e-02
0.638000 -1.586309e-02
0.641000 -1.104881e-02
0.644000 -6.063324e-03
0.647000 -9.304828e-04
0.650000 4.324182e-03
0.653000 9.673674e-03
0.656000 1.508973e-02
0.659000 2.054305e-02
0.662000 2.600353e-02
0.665000 3.144051e-02
0.668000 3.682305e-02
0.671000 4.212016e-02
0.674000 4.730113e-02
0.677000 5.233575e-02
0.680000 5.719458e-02
0.683000 6.184927e-02
0.686000 6.627272e-02
0.689000 7.043941e-02
0.692000 7.432556e-02
0.695000 7.790938e-02
0.698000 8.117122e-02
0.701000 8.409375e-02
0.704000 8.666211e-02
0.707000 8.886398e-02
0.710000 9.068973e-02
0.713000 9.213239e-02
0.716000 9.318774e-02
0.719000 9.385430e-02
0.722000 9.413327e-02
0.725000 9.402846e-02
0.728000 9.354626e-02
0.731000 9.269548e-02
0.734000 9.148721e-02
0.737000 8.993471e-02
0.740000 8.805316e-02
0.743000 8.585952e-02
0.746000 8.337231e-02
0.749000 8.061138e-02
0.752000 7.759769e-02
0.755000 7.435305e-02
0.758000 7.089992e-02
0.761000 6.726116e-02
0.764000 6.345979e-02
0.767000 5.951876e-02
0.770000 5.546075e-02
0.773000 5.130793e-02
0.776000 4.708181e-02
0.779000 4.280302e-02
0.782000 3.849117e-02
0.785000 3.416468e-02
0.788000 2.984070e-02
0.791000 2.553495e-02
0.794000 2.126167e-02
0.797000 1.703354e-02
0.800000 1.286165e-02
0.803000 8.755459e-03
0.806000 4.722816e-03
0.809000 7.699563e-04
0.812000 -3.098453e-03
0.815000 -6.879259e-03
0.818000 -1.057075e-02
0.821000 -1.417258e-02
0.824000 -1.768565e-02
0.827000 -2.111202e-02
0.830000 -2.445476e-02
0.833000 -2.771784e-02
0.836000 -3.090596e-02
0.839000 -3.402446e-02
0.842000 -3.707909e-02
0.845000 -4.007593e-02
0.848000 -4.302121e-02
0.851000 -4.592114e-02
0.854000 -4.878177e-02
0.857000 -5.160884e-02
0.860000 -5.440767e-02
0.863000 -5.718296e-02
0.866000 -5.993870e-02
0.869000 -6.267806e-02
0.872000 -6.540322e-02
0.875000 -6.811534e-02
0.878000 -7.081441e-02
0.881000 -7.349922e-02
0.884000 -7.616723e-02
0.887000 -7.881458e-02
0.890000 -8.143603e-02
0.893000 -8.402489e-02
0.896000 -8.657310e-02
0.899000 -8.907115e-02
0.902000 -9.150813e-02
0.905000 -9.387179e-02
0.908000 -9.614856e-02
0.911000 -9.832361e-02
0.914000 -1.003810e-01
0.917000 -1.023036e-01
0.920000 -1.040735e-01
0.923000 -1.056719e-01
0.926000 -1.070792e-01
0.929000 -1.082754e-01
0.932000 -1.092401e-01
0.935000 -1.099527e-01
0.938000 -1.103926e-01
0.941000 -1.105393e-01
0.944000 -1.103729e-01
0.947000 -1.098739e-01
0.950000 -1.090237e-01
0.953000 -1.078047e-01
0.956000 -1.062006e-01
0.959000 -1.041966e-01
0.962000 -1.017794e-01
0.965000 -9.893779e-02
0.968000 -9.566255e-02
0.971000 -9.194675e-02
0.974000 -8.778591e-02
0.977000 -8.317819e-02
0.980000 -7.812450e-02
0.983000 -7.262867e-02
0.986000 -6.669754e-02
0.989000 -6.034104e-02
0.992000 -5.357227e-02
0.995000 -4.640753e-02
0.998000 -3.886634e-02
1.001000 -3.097142e-02
1.004000 -2.274861e-02
1.007000 -1.422686e-02
1.010000 -5.438070e-03
1.013000 3.583038e-03
1.016000 1.279907e-02
1.019000 2.217018e-02
1.022000 3.165427e-02
1.025000 4.120727e-02
1.028000 5.078340e-02
1.031000 6.033549e-02
1.034000 6.981528e-02
1.037000 7.917380e-02
1.040000 8.836170e-02
1.043000 9.732964e-02
1.046000 1.060286e-01
1.049000 1.144106e-01
1.052000 1.224284e-01
1.055000 1.300367e-01
1.058000 1.371919e-01
1.061000 1.438530e-01
1.064000 1.499813e-01
1.067000 1.555416e-01
1.070000 1.605015e-01
1.073000 1.648328e-01
1.076000 1.685108e-01
1.079000 1.715152e-01
1.082000 1.738300e-01
1.085000 1.754437e-01
1.088000 1.763493e-01
1.091000 1.765449e-01
1.094000 1.760331e-01
1.097000 1.748212e-01
1.100000 1.729215e-01
1.103000 1.703508e-01
1.106000 1.671303e-01
1.109000 1.632856e-01
1.112000 1.588464e-01
1.115000 1.538464e-01
1.118000 1.483226e-01
1.121000 1.423154e-01
1.124000 1.358679e-01
1.127000 1.290258e-01
1.130000 1.218370e-01
1.133000 1.143508e-01
1.136000 1.066179e-01
1.139000 9.868977e-02
1.142000 9.061807e-02
1.145000 8.245446e-02
1.148000 7.425000e-02
1.151000 6.605474e-02
1.154000 5.791731e-02
1.157000 4.988455e-02
1.160000 4.200109e-02
1.163000 3.430902e-02
1.166000 2.684761e-02
1.169000 1.965298e-02
1.172000 1.275788e-02
1.175000 6.191495e-03
1.178000 -2.072862e-05
1.181000 -5.857198e-03
1.184000 -1.130025e-02
1.187000 -1.633618e-02
1.190000 -2.095523e-02
1.193000 -2.515154e-02
1.196000 -2.892305e-02
1.199000 -3.227139e-02
1.202000 -3.520164e-02
1.205000 -3.772223e-02
1.208000 -3.984463e-02
1.211000 -4.158309e-02
1.214000 -4.295443e-02
1.217000 -4.397765e-02
1.220000 -4.467368e-02
1.223000 -4.506502e-02
1.226000 -4.517543e-02
1.229000 -4.502959e-02
1.232000 -4.465276e-02
1.235000 -4.407050e-02
1.238000 -4.330833e-02
1.241000 -4.239143e-02
1.244000 -4.134441e-02
1.247000 -4.019101e-02
1.250000 -3.895392e-02
1.253000 -3.765454e-02
1.256000 -3.631285e-02
1.259000 -3.494721e-02
1.262000 -3.357434e-02
1.265000 -3.220914e-02
1.268000 -3.086472e-02
1.271000 -2.955234e-02
1.274000 -2.828142e-02
1.277000 -2.705960e-02
1.280000 -2.589278e-02
1.283000 -2.478520e-02
1.286000 -2.373958e-02
1.289000 -2.275718e-02
1.292000 -2.183799e-02
1.295000 -2.098086e-02
1.298000 -2.018362e-02
1.301000 -1.944329e-02
1.304000 -1.875620e-02
1.307000 -1.811818e-02
1.310000 -1.752467e-02
1.313000 -1.697092e-02
1.316000 -1.645208e-02
1.319000 -1.596336e-02
1.322000 -1.550010e-02
1.325000 -1.505794e-02
1.328000 -1.463284e-02
1.331000 -1.422116e-02
1.334000 -1.381973e-02
1.337000 -1.342588e-02
1.340000 -1.303746e-02
1.343000 -1.265282e-02
1.346000 -1.227083e-02
1.349000 -1.189087e-02
1.352000 -1.151275e-02
1.355000 -1.113670e-02
1.358000 -1.076331e-02
1.361000 -1.039350e-02
1.364000 -1.002842e-02
1.367000 -9.669385e-03
1.370000 -9.317867e-03
1.373000 -8.975373e-03
1.376000 -8.643416e-03
1.379000 -8.323450e-03
1.382000 -8.016825e-03
1.385000 -7.724739e-03
1.388000 -7.448203e-03
1.391000 -7.188014e-03
1.394000 -6.944729e-03
1.397000 -6.718658e-03
1.400000 -6.509856e-03
1.403000 -6.318123e-03
1.406000 -6.143021e-03
1.409000 -5.983881e-03
1.412000 -5.839832e-03
1.415000 -5.709826e-03
1.418000 -5.592665e-03
1.421000 -5.487036e-03
1.424000 -5.391548e-03
1.427000 -5.304760e-03
1.430000 -5.225224e-03
1.433000 -5.151513e-03
1.436000 -5.082251e-03
1.439000 -5.016146e-03
1.442000 -4.952008e-03
1.445000 -4.888773e-03
1.448000 -4.825521e-03
1.451000 -4.761478e-03
1.454000 -4.696034e-03
1.457000 -4.628735e-03
1.460000 -4.559285e-03
1.463000 -4.487539e-03
1.466000 -4.413490e-03
1.469000 -4.337259e-03
1.472000 -4.259075e-03
1.475000 -4.179258e-03
1.478000 -4.098201e-03
1.481000 -4.016348e-03
1.484000 -3.934175e-03
1.487000 -3.852169e-03
1.490000 -3.770814e-03
1.493000 -3.690566e-03
1.496000 -3.611849e-03
1.499000 -3.535033e-03
1.502000 -3.460432e-03
1.505000 -3.388292e-03
1.508000 -3.318793e-03
1.511000 -3.252042e-03
1.514000 -3.188078e-03
1.517000 -3.126875e-03
1.520000 -3.068350e-03
1.523000 -3.012369e-03
1.526000 -2.958757e-03
1.529000 -2.907310e-03
1.532000 -2.857806e-03
1.535000 -2.810011e-03
1.538000 -2.763699e-03
1.541000 -2.718655e-03
1.544000 -2.674687e-03
1.547000 -2.631633e-03
1.550000 -2.589367e-03
1.553000 -2.547806e-03
1.556000 -2.506908e-03
1.559000 -2.466676e-03
1.562000 -2.427155e-03
1.565000 -2.388428e-03
1.568000 -2.350615e-03
1.571000 -2.313859e-03
1.574000 -2.278327e-03
1.577000 -2.244194e-03
1.580000 -2.211640e-03
1.583000 -2.180834e-03
1.586000 -2.151932e-03
1.589000 -2.125060e-03
1.592000 -2.100315e-03
1.595000 -2.077749e-03
1.598000 -2.057369e-03
1.601000 -2.039134e-03
1.604000 -2.022945e-03
1.607000 -2.008654e-03
1.610000 -1.996058e-03
1.613000 -1.984905e-03
1.616000 -1.974902e-03
1.619000 -1.965713e-03
1.622000 -1.956978e-03
1.625000 -1.948311e-03
1.628000 -1.939321e-03
1.631000 -1.929614e-03
1.634000 -1.918808e-03
1.637000 -1.906545e-03
1.640000 -1.892499e-03
1.643000 -1.876389e-03
1.646000 -1.857984e-03
1.649000 -1.837116e-03
1.652000 -1.813681e-03
1.655000 -1.787646e-03
1.658000 -1.759052e-03
1.661000 -1.728015e-03
1.664000 -1.694721e-03
1.667000 -1.659426e-03
1.670000 -1.622451e-03
1.673000 -1.584172e-03
1.676000 -1.545014e-03
1.679000 -1.505438e-03
1.682000 -1.465933e-03
1.685000 -1.427001e-03
1.688000 -1.389146e-03
1.691000 -1.352862e-03
1.694000 -1.318616e-03
1.697000 -1.286842e-03
1.700000 -1.257926e-03
1.703000 -1.232196e-03
1.706000 -1.209913e-03
1.709000 -1.191268e-03
1.712000 -1.176369e-03
1.715000 -1.165245e-03
1.718000 -1.157841e-03
1.721000 -1.154019e-03
1.724000 -1.153562e-03
1.727000 -1.156177e-03
1.730000 -1.161505e-03
1.733000 -1.169125e-03
1.736000 -1.178569e-03
1.739000 -1.189329e-03
1.742000 -1.200869e-03
1.745000 -1.212644e-03
1.748000 -1.224103e-03
1.751000 -1.234711e-03
1.754000 -1.243957e-03
1.757000 -1.251367e-03
1.760000 -1.256516e-03
1.763000 -1.259037e-03
1.766000 -1.258630e-03
1.769000 -1.255069e-03
1.772000 -1.248204e-03
1.775000 -1.237969e-03
1.778000 -1.224382e-03
1.781000 -1.207539e-03
1.784000 -1.187618e-03
1.787000 -1.164869e-03
1.790000 -1.139612e-03
1.793000 -1.112224e-03
1.796000 -1.083132e-03
1.799000 -1.052805e-03
1.802000 -1.021738e-03
1.805000 -9.904421e-04
1.808000 -9.594314e-04
1.811000 -9.292121e-04
1.814000 -9.002694e-04
1.817000 -8.730564e-04
1.820000 -8.479833e-04
1.823000 -8.254084e-04
1.826000 -8.056299e-04
1.829000 -7.888792e-04
1.832000 -7.753163e-04
1.835000 -7.650263e-04
1.838000 -7.580184e-04
1.841000 -7.542261e-04
1.844000 -7.535098e-04
1.847000 -7.556609e-04
1.850000 -7.604069e-04
1.853000 -7.674191e-04
1.856000 -7.763208e-04
1.859000 -7.866967e-04
1.862000 -7.981032e-04
1.865000 -8.100792e-04
1.868000 -8.221574e-04
1.871000 -8.338754e-04
1.874000 -8.447869e-04
1.877000 -8.544719e-04
1.880000 -8.625465e-04
1.883000 -8.686719e-04
1.886000 -8.725622e-04
1.889000 -8.739901e-04
1.892000 -8.727925e-04
1.895000 -8.688733e-04
1.898000 -8.622053e-04
1.901000 -8.528303e-04
1.904000 -8.408573e-04
1.907000 -8.264592e-04
1.910000 -8.098684e-04
1.913000 -7.913707e-04
1.916000 -7.712977e-04
1.919000 -7.500187e-04
1.922000 -7.279314e-04
1.925000 -7.054526e-04
1.928000 -6.830072e-04
1.931000 -6.610187e-04
1.934000 -6.398987e-04
1.937000 -6.200369e-04
1.940000 -6.017923e-04
1.943000 -5.854844e-04
1.946000 -5.713857e-04
1.949000 -5.597156e-04
1.952000 -5.506351e-04
1.955000 -5.442434e-04
1.958000 -5.405756e-04
1.961000 -5.396019e-04
1.964000 -5.412285e-04
1.967000 -5.453004e-04
1.970000 -5.516046e-04
1.973000 -5.598754e-04
1.976000 -5.698011e-04
1.979000 -5.810309e-04
1.982000 -5.931833e-04
1.985000 -6.058555e-04
1.988000 -6.186322e-04
1.991000 -6.310959e-04
1.994000 -6.428362e-04
1.997000 -6.534597e-04
2.000000 -6.625991e-04
2.003000 -6.699215e-04
2.006000 -6.751366e-04
2.009000 -6.780030e-04
2.012000 -6.783345e-04
2.015000 -6.760035e-04
2.018000 -6.709453e-04
2.021000 -6.631586e-04
2.024000 -6.527063e-04
2.027000 -6.397143e-04
2.030000 -6.243682e-04
2.033000 -6.069102e-04
2.036000 -5.876328e-04
2.039000 -5.668732e-04
2.042000 -5.450053e-04
2.045000 -5.224316e-04
2.048000 -4.995743e-04
2.051000 -4.768661e-04
2.054000 -4.547401e-04
2.057000 -4.336207e-04
2.060000 -4.139138e-04
2.063000 -3.959979e-04
2.066000 -3.802154e-04
2.069000 -3.668652e-04
2.072000 -3.561956e-04
2.075000 -3.483990e-04
2.078000 -3.436070e-04
2.081000 -3.418875e-04
2.084000 -3.432431e-04
2.087000 -3.476102e-04
2.090000 -3.548605e-04
2.093000 -3.648031e-04
2.096000 -3.771887e-04
2.099000 -3.917143e-04
2.102000 -4.080295e-04
2.105000 -4.257439e-04
2.108000 -4.444350e-04
2.111000 -4.636569e-04
2.114000 -4.829501e-04
2.117000 -5.018506e-04
2.120000 -5.198999e-04
2.123000 -5.366545e-04
2.126000 -5.516955e-04
2.129000 -5.646371e-04
2.132000 -5.751351e-04
2.135000 -5.828940e-04
2.138000 -5.876734e-04
2.141000 -5.892934e-04
2.144000 -5.876381e-04
2.147000 -5.826588e-04
2.150000 -5.743745e-04
2.153000 -5.628728e-04
2.156000 -5.483073e-04
2.159000 -5.308955e-04
2.162000 -5.109141e-04
2.165000 -4.886937e-04
2.168000 -4.646126e-04
2.171000 -4.390886e-04
2.174000 -4.125713e-04
2.177000 -3.855331e-04
2.180000 -3.584591e-04
2.183000 -3.318384e-04
2.186000 -3.061532e-04
2.189000 -2.818702e-04
2.192000 -2.594304e-04
2.195000 -2.392407e-04
2.198000 -2.216657e-04
2.201000 -2.070199e-04
2.204000 -1.955622e-04
2.207000 -1.874899e-04
2.210000 -1.829350e-04
2.213000 -1.819615e-04
2.216000 -1.845640e-04
2.219000 -1.906675e-04
2.222000 -2.001292e-04
2.225000 -2.127407e-04
2.228000 -2.282325e-04
2.231000 -2.462786e-04
2.234000 -2.665034e-04
2.237000 -2.884886e-04
2.240000 -3.117814e-04
2.243000 -3.359030e-04
2.246000 -3.603585e-04
2.249000 -3.846458e-04
2.252000 -4.082655e-04
2.255000 -4.307306e-04
2.258000 -4.515759e-04
2.261000 -4.703669e-04
2.264000 -4.867079e-04
2.267000 -5.002500e-04
2.270000 -5.106973e-04
2.273000 -5.178130e-04
2.276000 -5.214234e-04
2.279000 -5.214215e-04
2.282000 -5.177688e-04
2.285000 -5.104961e-04
2.288000 -4.997027e-04
2.291000 -4.855545e-04
2.294000 -4.682807e-04
2.297000 -4.481695e-04
2.300000 -4.255624e-04
2.303000 -4.008478e-04
2.306000 -3.744536e-04
2.309000 -3.468387e-04
2.312000 -3.184849e-04
2.315000 -2.898873e-04
2.318000 -2.615454e-04
2.321000 -2.339533e-04
2.324000 -2.075907e-04
2.327000 -1.829138e-04
2.330000 -1.603472e-04
2.333000 -1.402757e-04
2.336000 -1.230372e-04
2.339000 -1.089168e-04
2.342000 -9.814154e-05
2.345000 -9.087637e-05
2.348000 -8.722123e-05
2.351000 -8.720944e-05
2.354000 -9.080737e-05
2.357000 -9.791519e-05
2.360000 -1.083691e-04
2.363000 -1.219443e-04
2.366000 -1.383600e-04
2.369000 -1.572839e-04
2.372000 -1.783393e-04
2.375000 -2.011119e-04
2.378000 -2.251577e-04
2.381000 -2.500109e-04
2.384000 -2.751933e-04
2.387000 -3.002222e-04
2.390000 -3.246202e-04
2.393000 -3.479232e-04
2.396000 -3.696892e-04
2.399000 -3.895061e-04
2.402000 -4.069993e-04
2.405000 -4.218382e-04
2.408000 -4.337418e-04
2.411000 -4.424840e-04
2.414000 -4.478973e-04
2.417000 -4.498752e-04
2.420000 -4.483743e-04
2.423000 -4.434143e-04
2.426000 -4.350777e-04
2.429000 -4.235073e-04
2.432000 -4.089043e-04
2.435000 -3.915232e-04
2.438000 -3.716676e-04
2.441000 -3.496841e-04
2.444000 -3.259558e-04
2.447000 -3.008953e-04
2.450000 -2.749369e-04
2.453000 -2.485287e-04
2.456000 -2.221243e-04
2.459000 -1.961746e-04
2.462000 -1.711201e-04
2.465000 -1.473824e-04
2.468000 -1.253571e-04
2.471000 -1.054068e-04
2.474000 -8.785480e-05
2.477000 -7.297958e-05
2.480000 -6.101004e-05
2.483000 -5.212181e-05
2.486000 -4.643443e-05
2.489000 -4.400966e-05
2.492000 -4.485072e-05
2.495000 -4.890273e-05
2.498000 -5.605405e-05
2.501000 -6.613878e-05
2.504000 -7.894004e-05
2.507000 -9.419431e-05
2.510000 -1.115964e-04
2.513000 -1.308055e-04
2.516000 -1.514509e-04
2.519000 -1.731396e-04
2.522000 -1.954631e-04
2.525000 -2.180046e-04
2.528000 -2.403470e-04
2.531000 -2.620800e-04
2.534000 -2.828072e-04
2.537000 -3.021536e-04
2.540000 -3.197713e-04
2.543000 -3.353464e-04
2.546000 -3.486032e-04
2.549000 -3.593099e-04
2.552000 -3.672814e-04
2.555000 -3.723827e-04
2.558000 -3.745309e-04
2.561000 -3.736960e-04
2.564000 -3.699008e-04
2.567000 -3.632207e-04
2.570000 -3.537811e-04
2.573000 -3.417554e-04
2.576000 -3.273611e-04
2.579000 -3.108557e-04
2.582000 -2.925318e-04
2.585000 -2.727116e-04
2.588000 -2.517408e-04
2.591000 -2.299827e-04
2.594000 -2.078110e-04
2.597000 -1.856036e-04
