-0.400000 2.064744e-02
-0.397000 2.373195e-02
-0.394000 2.649927e-02
-0.391000 2.894434e-02
-0.388000 3.106479e-02
-0.385000 3.286088e-02
-0.382000 3.433548e-02
-0.379000 3.549397e-02
-0.376000 3.634412e-02
-0.373000 3.689599e-02
-0.370000 3.716177e-02
-0.367000 3.715562e-02
-0.364000 3.689346e-02
-0.361000 3.639282e-02
-0.358000 3.567255e-02
-0.355000 3.475270e-02
-0.352000 3.365420e-02
-0.349000 3.239868e-02
-0.346000 3.100819e-02
-0.343000 2.950503e-02
-0.340000 2.791144e-02
-0.337000 2.624943e-02
-0.334000 2.454052e-02
-0.331000 2.280558e-02
-0.328000 2.106458e-02
-0.325000 1.933645e-02
-0.322000 1.763888e-02
-0.319000 1.598822e-02
-0.316000 1.439931e-02
-0.313000 1.288540e-02
-0.310000 1.145805e-02
-0.307000 1.012711e-02
-0.304000 8.900608e-03
-0.301000 7.784804e-03
-0.298000 6.784157e-03
-0.295000 5.901369e-03
-0.292000 5.137427e-03
-0.289000 4.491673e-03
-0.286000 3.961893e-03
-0.283000 3.544420e-03
-0.280000 3.234250e-03
-0.277000 3.025179e-03
-0.274000 2.909941e-03
-0.271000 2.880366e-03
-0.268000 2.927535e-03
-0.265000 3.041942e-03
-0.262000 3.213664e-03
-0.259000 3.432523e-03
-0.256000 3.688249e-03
-0.253000 3.970637e-03
-0.250000 4.269700e-03
-0.247000 4.575809e-03
-0.244000 4.879825e-03
-0.241000 5.173221e-03
-0.238000 5.448184e-03
-0.235000 5.697707e-03
-0.232000 5.915666e-03
-0.229000 6.096877e-03
-0.226000 6.237141e-03
-0.223000 6.333264e-03
-0.220000 6.383070e-03
-0.217000 6.385389e-03
-0.214000 6.340038e-03
-0.211000 6.247774e-03
-0.208000 6.110245e-03
-0.205000 5.929925e-03
-0.202000 5.710032e-03
-0.199000 5.454442e-03
-0.196000 5.167596e-03
-0.193000 4.854392e-03
-0.190000 4.520086e-03
-0.187000 4.170176e-03
-0.184000 3.810297e-03
-0.181000 3.446110e-03
-0.178000 3.083199e-03
-0.175000 2.726968e-03
-0.172000 2.382550e-03
-0.169000 2.054717e-03
-0.166000 1.747809e-03
-0.163000 1.465659e-03
-0.160000 1.211547e-03
-0.157000 9.881470e-04
-0.154000 7.975043e-04
-0.151000 6.410113e-04
-0.148000 5.194039e-04
-0.145000 4.327669e-04
-0.142000 3.805528e-04
-0.139000 3.616108e-04
-0.136000 3.742271e-04
-0.133000 4.161739e-04
-0.130000 4.847669e-04
-0.127000 5.769299e-04
-0.124000 6.892645e-04
-0.121000 8.181244e-04
-0.118000 9.596915e-04
-0.115000 1.110054e-03
-0.112000 1.265284e-03
-0.109000 1.421511e-03
-0.106000 1.574995e-03
-0.103000 1.722195e-03
-0.100000 1.859829e-03
-0.097000 1.984927e-03
-0.094000 2.094883e-03
-0.091000 2.187490e-03
-0.088000 2.260971e-03
-0.085000 2.313998e-03
-0.082000 2.345706e-03
-0.079000 2.355695e-03
-0.076000 2.344017e-03
-0.073000 2.311170e-03
-0.070000 2.258063e-03
-0.067000 2.185993e-03
-0.064000 2.096603e-03
-0.061000 1.991838e-03
-0.058000 1.873897e-03
-0.055000 1.745180e-03
-0.052000 1.608237e-03
-0.049000 1.465707e-03
-0.046000 1.320266e-03
-0.043000 1.174569e-03
-0.040000 1.031199e-03
-0.037000 8.926187e-04
-0.034000 7.611190e-04
-0.031000 6.387837e-04
-0.028000 5.274506e-04
-0.025000 4.286829e-04
-0.022000 3.437456e-04
-0.019000 2.735889e-04
-0.016000 2.188388e-04
-0.013000 1.797942e-04
-0.010000 1.564308e-04
-0.007000 1.484111e-04
-0.004000 1.551014e-04
-0.001000 1.755932e-04
0.002000 2.087306e-04
0.005000 2.531406e-04
0.008000 3.072687e-04
0.011000 3.694155e-04
0.014000 4.377759e-04
0.017000 5.104798e-04
0.020000 5.856319e-04
0.023000 6.613515e-04
0.026000 7.358108e-04
0.029000 8.072708e-04
0.032000 8.741146e-04
0.035000 9.348767e-04
0.038000 9.882693e-04
0.041000 1.033203e-03
0.044000 1.068803e-03
0.047000 1.094423e-03
0.050000 1.109648e-03
0.053000 1.114299e-03
0.056000 1.108430e-03
0.059000 1.092316e-03
0.062000 1.066444e-03
0.065000 1.031498e-03
0.068000 9.883319e-04
0.071000 9.379544e-04
0.074000 8.814977e-04
0.077000 8.201922e-04
0.080000 7.553366e-04
0.083000 6.882687e-04
0.086000 6.203353e-04
0.089000 5.528637e-04
0.092000 4.871330e-04
0.095000 4.243490e-04
0.098000 3.656193e-04
0.101000 3.119330e-04
0.104000 2.641423e-04
0.107000 2.229478e-04
0.110000 1.888878e-04
0.113000 1.623311e-04
0.116000 1.434733e-04
0.119000 1.323378e-04
0.122000 1.287797e-04
0.125000 1.324938e-04
0.128000 1.430259e-04
0.131000 1.597863e-04
0.134000 1.820673e-04
0.137000 2.090617e-04
0.140000 2.398836e-04
0.143000 2.735901e-04
0.146000 3.092045e-04
0.149000 3.457387e-04
0.152000 3.822156e-04
0.155000 4.176915e-04
0.158000 4.512761e-04
0.161000 4.821515e-04
0.164000 5.095888e-04
0.167000 5.329623e-04
0.170000 5.517616e-04
0.173000 5.655997e-04
0.176000 5.742186e-04
0.179000 5.774925e-04
0.182000 5.754265e-04
0.185000 5.681531e-04
0.188000 5.559259e-04
0.191000 5.391102e-04
0.194000 5.181714e-04
0.197000 4.936609e-04
0.200000 4.662014e-04
0.203000 4.364691e-04
0.206000 4.051766e-04
0.209000 3.730546e-04
0.212000 3.408333e-04
0.215000 3.092248e-04
0.218000 2.789061e-04
0.221000 2.505030e-04
0.224000 2.245762e-04
0.227000 2.016090e-04
0.230000 1.819967e-04
0.233000 1.660396e-04
0.236000 1.539371e-04
0.239000 1.457853e-04
0.242000 1.415772e-04
0.245000 1.412054e-04
0.248000 1.444668e-04
0.251000 1.510706e-04
0.254000 1.606474e-04
0.257000 1.727609e-04
0.260000 1.869204e-04
0.263000 2.025953e-04
0.266000 2.192294e-04
0.269000 2.362566e-04
0.272000 2.531155e-04
0.275000 2.692646e-04
0.278000 2.841963e-04
0.281000 2.974495e-04
0.284000 3.086213e-04
0.287000 3.173763e-04
0.290000 3.234549e-04
0.293000 3.266786e-04
0.296000 3.269533e-04
0.299000 3.242705e-04
0.302000 3.187060e-04
0.305000 3.104162e-04
0.308000 2.996329e-04
0.311000 2.866554e-04
0.314000 2.718411e-04
0.317000 2.555949e-04
0.320000 2.383574e-04
0.323000 2.205918e-04
0.326000 2.027711e-04
0.329000 1.853643e-04
0.332000 1.688237e-04
0.335000 1.535724e-04
0.338000 1.399925e-04
0.341000 1.284150e-04
0.344000 1.191111e-04
0.347000 1.122848e-04
0.350000 1.080680e-04
0.353000 1.065174e-04
0.356000 1.076133e-04
0.359000 1.112608e-04
0.362000 1.172929e-04
0.365000 1.254758e-04
0.368000 1.355155e-04
0.371000 1.470667e-04
0.374000 1.597423e-04
0.377000 1.731249e-04
0.380000 1.867782e-04
0.383000 2.002593e-04
0.386000 2.131313e-04
0.389000 2.249749e-04
0.392000 2.354006e-04
0.395000 2.440588e-04
0.398000 2.506501e-04
0.401000 2.549325e-04
0.404000 2.567290e-04
0.407000 2.559314e-04
0.410000 2.525038e-04
0.413000 2.464832e-04
0.416000 2.379782e-04
0.419000 2.271666e-04
0.422000 2.142895e-04
0.425000 1.996456e-04
0.428000 1.835822e-04
0.431000 1.664864e-04
0.434000 1.487743e-04
0.437000 1.308797e-04
0.440000 1.132426e-04
0.443000 9.629732e-05
0.446000 8.046071e-05
0.449000 6.612128e-05
0.452000 5.362879e-05
0.455000 4.328502e-05
0.458000 3.533582e-05
0.461000 2.996476e-05
0.464000 2.728834e-05
0.467000 2.735312e-05
0.470000 3.013460e-05
0.473000 3.553805e-05
0.476000 4.340119e-05
0.479000 5.349858e-05
0.482000 6.554769e-05
0.485000 7.921643e-05
0.488000 9.413194e-05
0.491000 1.098903e-04
0.494000 1.260673e-04
0.497000 1.422291e-04
0.500000 1.579438e-04
0.503000 1.727921e-04
0.506000 1.863785e-04
0.509000 1.983407e-04
0.512000 2.083591e-04
0.515000 2.161644e-04
0.518000 2.215444e-04
0.521000 2.243487e-04
0.524000 2.244923e-04
0.527000 2.219573e-04
0.530000 2.167928e-04
0.533000 2.091132e-04
0.536000 1.990947e-04
0.539000 1.869705e-04
0.542000 1.730246e-04
0.545000 1.575839e-04
0.548000 1.410101e-04
0.551000 1.236900e-04
0.554000 1.060260e-04
0.557000 8.842560e-05
0.560000 7.129151e-05
0.563000 5.501172e-05
0.566000 3.995002e-05
0.569000 2.643733e-05
0.572000 1.476396e-05
0.575000 5.172944e-06
0.578000 -2.145373e-06
0.581000 -7.057323e-06
0.584000 -9.488486e-06
0.587000 -9.424752e-06
0.590000 -6.911878e-06
0.593000 -2.053586e-06
0.596000 4.991732e-06
0.599000 1.401560e-05
0.602000 2.476521e-05
0.605000 3.695012e-05
0.608000 5.024983e-05
0.611000 6.432191e-05
0.614000 7.881055e-05
0.617000 9.335528e-05
0.620000 1.075997e-04
0.623000 1.211997e-04
0.626000 1.338320e-04
0.629000 1.452009e-04
0.632000 1.550450e-04
0.635000 1.631430e-04
0.638000 1.693184e-04
0.641000 1.734422e-04
0.644000 1.754360e-04
0.647000 1.752721e-04
0.650000 1.729740e-04
0.653000 1.686142e-04
0.656000 1.623124e-04
0.659000 1.542309e-04
0.662000 1.445709e-04
0.665000 1.335661e-04
0.668000 1.214778e-04
0.671000 1.085869e-04
0.674000 9.518832e-05
0.677000 8.158283e-05
0.680000 6.807049e-05
0.683000 5.494355e-05
0.686000 4.247986e-05
0.689000 3.093671e-05
0.692000 2.054529e-05
0.695000 1.150596e-05
0.698000 3.984202e-06
0.701000 -1.892430e-06
0.704000 -6.036438e-06
0.707000 -8.401542e-06
0.710000 -8.982849e-06
0.713000 -7.816063e-06
0.716000 -4.975773e-06
0.719000 -5.728704e-07
0.722000 5.248801e-06
0.725000 1.231650e-05
0.728000 2.043319e-05
0.731000 2.938266e-05
0.734000 3.893488e-05
0.737000 4.885164e-05
0.740000 5.889221e-05
0.743000 6.881891e-05
0.746000 7.840252e-05
0.749000 8.742734e-05
0.752000 9.569583e-05
0.755000 1.030327e-04
0.758000 1.092885e-04
0.761000 1.143422e-04
0.764000 1.181034e-04
0.767000 1.205140e-04
0.770000 1.215479e-04
0.773000 1.212115e-04
0.776000 1.195425e-04
0.779000 1.166080e-04
0.782000 1.125024e-04
0.785000 1.073444e-04
0.788000 1.012734e-04
0.791000 9.444580e-05
0.794000 8.703080e-05
0.797000 7.920607e-05
0.800000 7.115326e-05
0.803000 6.305358e-05
0.806000 5.508347e-05
0.809000 4.741054e-05
0.812000 4.018979e-05
0.815000 3.356027e-05
0.818000 2.764215e-05
0.821000 2.253446e-05
0.824000 1.831323e-05
0.827000 1.503044e-05
0.830000 1.271347e-05
0.833000 1.136525e-05
0.836000 1.096493e-05
0.839000 1.146931e-05
0.842000 1.281460e-05
0.845000 1.491878e-05
0.848000 1.768438e-05
0.851000 2.100151e-05
0.854000 2.475117e-05
0.857000 2.880873e-05
0.860000 3.304745e-05
0.863000 3.734191e-05
0.866000 4.157144e-05
0.869000 4.562317e-05
0.872000 4.939491e-05
0.875000 5.279761e-05
0.878000 5.575738e-05
0.881000 5.821704e-05
0.884000 6.013720e-05
0.887000 6.149674e-05
0.890000 6.229281e-05
0.893000 6.254024e-05
0.896000 6.227052e-05
0.899000 6.153024e-05
0.902000 6.037915e-05
0.905000 5.888789e-05
0.908000 5.713531e-05
0.911000 5.520578e-05
0.914000 5.318616e-05
0.917000 5.116292e-05
0.920000 4.921917e-05
0.923000 4.743191e-05
0.926000 4.586944e-05
0.929000 4.458913e-05
0.932000 4.363548e-05
0.935000 4.303860e-05
0.938000 4.281324e-05
0.941000 4.295820e-05
0.944000 4.345630e-05
0.947000 4.427488e-05
0.950000 4.536675e-05
0.953000 4.667170e-05
0.956000 4.811833e-05
0.959000 4.962635e-05
0.962000 5.110919e-05
0.965000 5.247680e-05
0.968000 5.363867e-05
0.971000 5.450690e-05
0.974000 5.499927e-05
0.977000 5.504218e-05
0.980000 5.457340e-05
0.983000 5.354459e-05
0.986000 5.192341e-05
0.989000 4.969521e-05
0.992000 4.686427e-05
0.995000 4.345447e-05
0.998000 3.950948e-05
1.001000 3.509223e-05
1.004000 3.028397e-05
1.007000 2.518268e-05
1.010000 1.990092e-05
1.013000 1.456329e-05
1.016000 9.303422e-06
1.019000 4.260564e-06
1.022000 -4.239913e-07
1.025000 -4.610735e-06
1.028000 -8.165817e-06
1.031000 -1.096490e-05
1.034000 -1.289687e-05
1.037000 -1.386734e-05
1.040000 -1.380181e-05
1.043000 -1.264839e-05
1.046000 -1.038002e-05
1.049000 -6.996156e-06
1.052000 -2.523796e-06
1.055000 2.982203e-06
1.058000 9.439444e-06
1.061000 1.673906e-05
1.064000 2.474744e-05
1.067000 3.330871e-05
1.070000 4.224769e-05
1.073000 5.137359e-05
1.076000 6.048404e-05
1.079000 6.936962e-05
1.082000 7.781860e-05
1.085000 8.562195e-05
1.088000 9.257832e-05
1.091000 9.849905e-05
1.094000 1.032129e-04
1.097000 1.065707e-04
1.100000 1.084492e-04
1.103000 1.087548e-04
1.106000 1.074265e-04
1.109000 1.044380e-04
1.112000 9.979944e-05
1.115000 9.355777e-05
1.118000 8.579687e-05
1.121000 7.663638e-05
1.124000 6.622988e-05
1.127000 5.476217e-05
1.130000 4.244587e-05
1.133000 2.951722e-05
1.136000 1.623137e-05
1.139000 2.857040e-06
1.142000 -1.032914e-05
1.145000 -2.304859e-05
1.148000 -3.502691e-05
1.151000 -4.599999e-05
1.154000 -5.572001e-05
1.157000 -6.396115e-05
1.160000 -7.052495e-05
1.163000 -7.524507e-05
1.166000 -7.799147e-05
1.169000 -7.867381e-05
1.172000 -7.724408e-05
1.175000 -7.369827e-05
1.178000 -6.807713e-05
1.181000 -6.046597e-05
1.184000 -5.099347e-05
1.187000 -3.982956e-05
1.190000 -2.718233e-05
1.193000 -1.329419e-05
1.196000 1.562908e-06
1.199000 1.709274e-05
1.202000 3.298078e-05
1.205000 4.890059e-05
1.208000 6.452040e-05
1.211000 7.950998e-05
1.214000 9.354743e-05
1.217000 1.063258e-04
1.220000 1.175594e-04
1.223000 1.269899e-04
1.226000 1.343914e-04
1.229000 1.395748e-04
1.232000 1.423923e-04
1.235000 1.427394e-04
1.238000 1.405572e-04
1.241000 1.358331e-04
1.244000 1.286003e-04
1.247000 1.189364e-04
1.250000 1.069613e-04
1.253000 9.283276e-05
1.256000 7.674270e-05
1.259000 5.891099e-05
1.262000 3.957933e-05
1.265000 1.900407e-05
1.268000 -2.551571e-06
1.271000 -2.482577e-05
1.274000 -4.756668e-05
1.277000 -7.054123e-05
1.280000 -9.354397e-05
1.283000 -1.164059e-04
1.286000 -1.390028e-04
1.289000 -1.612637e-04
1.292000 -1.831783e-04
1.295000 -2.048040e-04
1.298000 -2.262722e-04
1.301000 -2.477941e-04
1.304000 -2.696653e-04
1.307000 -2.922691e-04
1.310000 -3.160800e-04
1.313000 -3.416653e-04
1.316000 -3.696858e-04
1.319000 -4.008962e-04
1.322000 -4.361439e-04
1.325000 -4.763678e-04
1.328000 -5.225951e-04
1.331000 -5.759385e-04
1.334000 -6.375926e-04
1.337000 -7.088290e-04
1.340000 -7.909916e-04
1.343000 -8.854915e-04
1.346000 -9.938007e-04
1.349000 -1.117447e-03
1.352000 -1.258006e-03
1.355000 -1.417096e-03
1.358000 -1.596372e-03
1.361000 -1.797516e-03
1.364000 -2.022230e-03
1.367000 -2.272230e-03
1.370000 -2.549236e-03
1.373000 -2.854963e-03
1.376000 -3.191115e-03
1.379000 -3.559367e-03
1.382000 -3.961363e-03
1.385000 -4.398697e-03
1.388000 -4.872904e-03
1.391000 -5.385444e-03
1.394000 -5.937684e-03
1.397000 -6.530885e-03
1.400000 -7.166179e-03
1.403000 -7.844552e-03
1.406000 -8.566819e-03
1.409000 -9.333604e-03
1.412000 -1.014531e-02
1.415000 -1.100210e-02
1.418000 -1.190386e-02
1.421000 -1.285018e-02
1.424000 -1.384031e-02
1.427000 -1.487316e-02
1.430000 -1.594723e-02
1.433000 -1.706061e-02
1.436000 -1.821096e-02
1.439000 -1.939544e-02
1.442000 -2.061072e-02
1.445000 -2.185296e-02
1.448000 -2.311778e-02
1.451000 -2.440024e-02
1.454000 -2.569484e-02
1.457000 -2.699552e-02
1.460000 -2.829565e-02
1.463000 -2.958803e-02
1.466000 -3.086493e-02
1.469000 -3.211810e-02
1.472000 -3.333878e-02
1.475000 -3.451779e-02
1.478000 -3.564551e-02
1.481000 -3.671199e-02
1.484000 -3.770697e-02
1.487000 -3.862000e-02
1.490000 -3.944047e-02
1.493000 -4.015773e-02
1.496000 -4.076118e-02
1.499000 -4.124036e-02
1.502000 -4.158504e-02
1.505000 -4.178537e-02
1.508000 -4.183198e-02
1.511000 -4.171604e-02
1.514000 -4.142948e-02
1.517000 -4.096499e-02
1.520000 -4.031622e-02
1.523000 -3.947784e-02
1.526000 -3.844563e-02
1.529000 -3.721665e-02
1.532000 -3.578921e-02
1.535000 -3.416305e-02
1.538000 -3.233933e-02
1.541000 -3.032074e-02
1.544000 -2.811148e-02
1.547000 -2.571731e-02
1.550000 -2.314557e-02
1.553000 -2.040511e-02
1.556000 -1.750634e-02
1.559000 -1.446111e-02
1.562000 -1.128270e-02
1.565000 -7.985703e-03
1.568000 -4.585959e-03
1.571000 -1.100415e-03
1.574000 2.452990e-03
1.577000 6.055461e-03
1.580000 9.687509e-03
1.583000 1.332911e-02
1.586000 1.695986e-02
1.589000 2.055920e-02
1.592000 2.410653e-02
1.595000 2.758145e-02
1.598000 3.096390e-02
1.601000 3.423439e-02
1.604000 3.737414e-02
1.607000 4.036523e-02
1.610000 4.319084e-02
1.613000 4.583530e-02
1.616000 4.828433e-02
1.619000 5.052506e-02
1.622000 5.254623e-02
1.625000 5.433821e-02
1.628000 5.589312e-02
1.631000 5.720487e-02
1.634000 5.826915e-02
1.637000 5.908354e-02
1.640000 5.964742e-02
1.643000 5.996198e-02
1.646000 6.003017e-02
1.649000 5.985667e-02
1.652000 5.944777e-02
1.655000 5.881130e-02
1.658000 5.795654e-02
1.661000 5.689407e-02
1.664000 5.563567e-02
1.667000 5.419417e-02
1.670000 5.258332e-02
1.673000 5.081760e-02
1.676000 4.891215e-02
1.679000 4.688252e-02
1.682000 4.474459e-02
1.685000 4.251439e-02
1.688000 4.020797e-02
1.691000 3.784126e-02
1.694000 3.542990e-02
1.697000 3.298919e-02
1.700000 3.053390e-02
1.703000 2.807822e-02
1.706000 2.563564e-02
1.709000 2.321888e-02
1.712000 2.083983e-02
1.715000 1.850946e-02
1.718000 1.623783e-02
1.721000 1.403400e-02
1.724000 1.190604e-02
1.727000 9.861034e-03
1.730000 7.905043e-03
1.733000 6.043148e-03
1.736000 4.279458e-03
1.739000 2.617139e-03
1.742000 1.058451e-03
1.745000 -3.952086e-04
1.748000 -1.743257e-03
1.751000 -2.985875e-03
1.754000 -4.123949e-03
1.757000 -5.159014e-03
1.760000 -6.093192e-03
1.763000 -6.929130e-03
1.766000 -7.669937e-03
1.769000 -8.319126e-03
1.772000 -8.880553e-03
1.775000 -9.358356e-03
1.778000 -9.756902e-03
1.781000 -1.008073e-02
1.784000 -1.033451e-02
1.787000 -1.052298e-02
1.790000 -1.065092e-02
1.793000 -1.072309e-02
1.796000 -1.074422e-02
1.799000 -1.071896e-02
1.802000 -1.065184e-02
1.805000 -1.054729e-02
1.808000 -1.040957e-02
1.811000 -1.024275e-02
1.814000 -1.005073e-02
1.817000 -9.837231e-03
1.820000 -9.605726e-03
1.823000 -9.359492e-03
1.826000 -9.101578e-03
1.829000 -8.834809e-03
1.832000 -8.561786e-03
1.835000 -8.284883e-03
1.838000 -8.006252e-03
1.841000 -7.727828e-03
1.844000 -7.451331e-03
1.847000 -7.178277e-03
1.850000 -6.909981e-03
1.853000 -6.647568e-03
1.856000 -6.391980e-03
1.859000 -6.143988e-03
1.862000 -5.904201e-03
1.865000 -5.673074e-03
1.868000 -5.450925e-03
1.871000 -5.237939e-03
1.874000 -5.034187e-03
1.877000 -4.839630e-03
1.880000 -4.654137e-03
1.883000 -4.477494e-03
1.886000 -4.309415e-03
1.889000 -4.149553e-03
1.892000 -3.997515e-03
1.895000 -3.852868e-03
1.898000 -3.715152e-03
1.901000 -3.583892e-03
1.904000 -3.458602e-03
1.907000 -3.338800e-03
1.910000 -3.224012e-03
1.913000 -3.113780e-03
1.916000 -3.007672e-03
1.919000 -2.905285e-03
1.922000 -2.806250e-03
1.925000 -2.710237e-03
1.928000 -2.616957e-03
1.931000 -2.526167e-03
1.934000 -2.437668e-03
1.937000 -2.351307e-03
1.940000 -2.266977e-03
1.943000 -2.184614e-03
1.946000 -2.104195e-03
1.949000 -2.025736e-03
1.952000 -1.949288e-03
1.955000 -1.874932e-03
1.958000 -1.802776e-03
1.961000 -1.732946e-03
1.964000 -1.665585e-03
1.967000 -1.600845e-03
1.970000 -1.538880e-03
1.973000 -1.479843e-03
1.976000 -1.423878e-03
1.979000 -1.371117e-03
1.982000 -1.321672e-03
1.985000 -1.275634e-03
1.988000 -1.233065e-03
1.991000 -1.193997e-03
1.994000 -1.158430e-03
1.997000 -1.126327e-03
2.000000 -1.097616e-03
2.003000 -1.072187e-03
2.006000 -1.049893e-03
2.009000 -1.030552e-03
2.012000 -1.013947e-03
2.015000 -9.998289e-04
2.018000 -9.879221e-04
2.021000 -9.779248e-04
2.024000 -9.695151e-04
2.027000 -9.623551e-04
2.030000 -9.560958e-04
2.033000 -9.503827e-04
2.036000 -9.448606e-04
2.039000 -9.391788e-04
2.042000 -9.329969e-04
2.045000 -9.259889e-04
2.048000 -9.178482e-04
2.051000 -9.082917e-04
2.054000 -8.970632e-04
2.057000 -8.839365e-04
2.060000 -8.687175e-04
2.063000 -8.512461e-04
2.066000 -8.313961e-04
2.069000 -8.090761e-04
2.072000 -7.842273e-04
2.075000 -7.568228e-04
2.078000 -7.268638e-04
2.081000 -6.943768e-04
2.084000 -6.594088e-04
2.087000 -6.220224e-04
2.090000 -5.822899e-04
2.093000 -5.402872e-04
2.096000 -4.960866e-04
2.099000 -4.497499e-04
2.102000 -4.013205e-04
2.105000 -3.508162e-04
2.108000 -2.982210e-04
2.111000 -2.434774e-04
2.114000 -1.864792e-04
2.117000 -1.270636e-04
2.120000 -6.500474e-05
2.123000 -7.280952e-09
2.126000 6.829976e-05
2.129000 1.403680e-04
2.132000 2.167343e-04
2.135000 2.980241e-04
2.138000 3.849549e-04
2.141000 4.783373e-04
2.144000 5.790768e-04
2.147000 6.881734e-04
2.150000 8.067211e-04
2.153000 9.359055e-04
2.156000 1.077002e-03
2.159000 1.231371e-03
2.162000 1.400454e-03
2.165000 1.585769e-03
2.168000 1.788904e-03
2.171000 2.011509e-03
2.174000 2.255290e-03
2.177000 2.521999e-03
2.180000 2.813429e-03
2.183000 3.131400e-03
2.186000 3.477753e-03
2.189000 3.854338e-03
2.192000 4.263004e-03
2.195000 4.705588e-03
2.198000 5.183901e-03
2.201000 5.699723e-03
2.204000 6.254782e-03
2.207000 6.850750e-03
2.210000 7.489223e-03
2.213000 8.171713e-03
2.216000 8.899633e-03
2.219000 9.674280e-03
2.222000 1.049683e-02
2.225000 1.136830e-02
2.228000 1.228956e-02
2.231000 1.326132e-02
2.234000 1.428408e-02
2.237000 1.535812e-02
2.240000 1.648354e-02
2.243000 1.766016e-02
2.246000 1.888754e-02
2.249000 2.016499e-02
2.252000 2.149150e-02
2.255000 2.286576e-02
2.258000 2.428610e-02
2.261000 2.575052e-02
2.264000 2.725664e-02
2.267000 2.880170e-02
2.270000 3.038252e-02
2.273000 3.199551e-02
2.276000 3.363665e-02
2.279000 3.530144e-02
2.282000 3.698495e-02
2.285000 3.868178e-02
2.288000 4.038603e-02
2.291000 4.209134e-02
2.294000 4.379087e-02
2.297000 4.547728e-02
2.300000 4.714278e-02
2.303000 4.877911e-02
2.306000 5.037757e-02
2.309000 5.192903e-02
2.312000 5.342395e-02
2.315000 5.485241e-02
2.318000 5.620419e-02
2.321000 5.746873e-02
2.324000 5.863522e-02
2.327000 5.969268e-02
2.330000 6.062995e-02
2.333000 6.143580e-02
2.336000 6.209898e-02
2.339000 6.260827e-02
2.342000 6.295263e-02
2.345000 6.312117e-02
2.348000 6.310332e-02
2.351000 6.288890e-02
2.354000 6.246819e-02
2.357000 6.183201e-02
2.360000 6.097187e-02
2.363000 5.988000e-02
2.366000 5.854949e-02
2.369000 5.697437e-02
2.372000 5.514967e-02
2.375000 5.307155e-02
2.378000 5.073738e-02
2.381000 4.814578e-02
2.384000 4.529676e-02
2.387000 4.219172e-02
2.390000 3.883356e-02
2.393000 3.522668e-02
2.396000 3.137709e-02
2.399000 2.729238e-02
2.402000 2.298178e-02
2.405000 1.845616e-02
2.408000 1.372801e-02
2.411000 8.811446e-03
2.414000 3.722164e-03
2.417000 -1.522584e-03
2.420000 -6.904056e-03
2.423000 -1.240209e-02
2.426000 -1.799519e-02
2.429000 -2.366062e-02
2.432000 -2.937449e-02
2.435000 -3.511195e-02
2.438000 -4.084723e-02
2.441000 -4.655387e-02
2.444000 -5.220482e-02
2.447000 -5.777263e-02
2.450000 -6.322965e-02
2.453000 -6.854816e-02
2.456000 -7.370059e-02
2.459000 -7.865973e-02
2.462000 -8.339887e-02
2.465000 -8.789208e-02
2.468000 -9.211431e-02
2.471000 -9.604167e-02
2.474000 -9.965157e-02
2.477000 -1.029229e-01
2.480000 -1.058363e-01
2.483000 -1.083742e-01
2.486000 -1.105209e-01
2.489000 -1.122632e-01
2.492000 -1.135898e-01
2.495000 -1.144921e-01
2.498000 -1.149637e-01
2.501000 -1.150011e-01
2.504000 -1.146031e-01
2.507000 -1.137714e-01
2.510000 -1.125103e-01
2.513000 -1.108269e-01
2.516000 -1.087308e-01
2.519000 -1.062343e-01
2.522000 -1.033523e-01
2.525000 -1.001021e-01
2.528000 -9.650334e-02
2.531000 -9.257795e-02
2.534000 -8.834987e-02
2.537000 -8.384495e-02
2.540000 -7.909074e-02
2.543000 -7.411629e-02
2.546000 -6.895195e-02
2.549000 -6.362912e-02
2.552000 -5.818001e-02
2.555000 -5.263739e-02
2.558000 -4.703434e-02
2.561000 -4.140401e-02
2.564000 -3.577931e-02
2.567000 -3.019270e-02
2.570000 -2.467593e-02
2.573000 -1.925976e-02
2.576000 -1.397374e-02
2.579000 -8.846008e-03
2.582000 -3.903024e-03
2.585000 8.305932e-04
2.588000 5.332260e-03
2.591000 9.581590e-03
2.594000 1.356053e-02
2.597000 1.725350e-02
