-0.400000 1.041833e-04
-0.397000 1.129855e-04
-0.394000 1.198917e-04
-0.391000 1.248146e-04
-0.388000 1.277000e-04
-0.385000 1.285271e-04
-0.382000 1.273087e-04
-0.379000 1.240902e-04
-0.376000 1.189488e-04
-0.373000 1.119917e-04
-0.370000 1.033537e-04
-0.367000 9.319529e-05
-0.364000 8.169886e-05
-0.361000 6.906604e-05
-0.358000 5.551396e-05
-0.355000 4.127149e-05
-0.352000 2.657539e-05
-0.349000 1.166633e-05
-0.346000 -3.215059e-06
-0.343000 -1.783211e-05
-0.340000 -3.195587e-05
-0.337000 -4.536877e-05
-0.334000 -5.786793e-05
-0.331000 -6.926824e-05
-0.328000 -7.940511e-05
-0.325000 -8.813684e-05
-0.322000 -9.534651e-05
-0.319000 -1.009436e-04
-0.316000 -1.048648e-04
-0.313000 -1.070749e-04
-0.310000 -1.075668e-04
-0.307000 -1.063610e-04
-0.304000 -1.035051e-04
-0.301000 -9.907217e-05
-0.298000 -9.315965e-05
-0.295000 -8.588694e-05
-0.292000 -7.739325e-05
-0.289000 -6.783495e-05
-0.286000 -5.738276e-05
-0.283000 -4.621870e-05
-0.280000 -3.453293e-05
-0.277000 -2.252053e-05
-0.274000 -1.037820e-05
-0.271000 1.698921e-06
-0.268000 1.352044e-05
-0.265000 2.490370e-05
-0.262000 3.567659e-05
-0.259000 4.568018e-05
-0.256000 5.477102e-05
-0.253000 6.282320e-05
-0.250000 6.973001e-05
-0.247000 7.540536e-05
-0.244000 7.978471e-05
-0.241000 8.282571e-05
-0.238000 8.450843e-05
-0.235000 8.483522e-05
-0.232000 8.383021e-05
-0.229000 8.153845e-05
-0.226000 7.802470e-05
-0.223000 7.337201e-05
-0.220000 6.767990e-05
-0.217000 6.106238e-05
-0.214000 5.364582e-05
-0.211000 4.556651e-05
-0.208000 3.696827e-05
-0.205000 2.799990e-05
-0.202000 1.881261e-05
-0.199000 9.557517e-06
-0.196000 3.831128e-07
-0.193000 -8.567067e-06
-0.190000 -1.715671e-05
-0.187000 -2.525877e-05
-0.184000 -3.275737e-05
-0.181000 -3.954938e-05
-0.178000 -4.554586e-05
-0.175000 -5.067311e-05
-0.172000 -5.487352e-05
-0.169000 -5.810609e-05
-0.166000 -6.034671e-05
-0.163000 -6.158805e-05
-0.160000 -6.183927e-05
-0.157000 -6.112539e-05
-0.154000 -5.948646e-05
-0.151000 -5.697646e-05
-0.148000 -5.366199e-05
-0.145000 -4.962083e-05
-0.142000 -4.494026e-05
-0.139000 -3.971539e-05
-0.136000 -3.404724e-05
-0.133000 -2.804096e-05
-0.130000 -2.180383e-05
-0.127000 -1.544348e-05
-0.124000 -9.065967e-06
-0.121000 -2.774101e-06
-0.118000 3.334254e-06
-0.115000 9.167660e-06
-0.112000 1.464247e-05
-0.109000 1.968400e-05
-0.106000 2.422750e-05
-0.103000 2.821895e-05
-0.100000 3.161562e-05
-0.097000 3.438639e-05
-0.094000 3.651193e-05
-0.091000 3.798456e-05
-0.088000 3.880801e-05
-0.085000 3.899691e-05
-0.082000 3.857611e-05
-0.079000 3.757990e-05
-0.076000 3.605099e-05
-0.073000 3.403945e-05
-0.070000 3.160151e-05
-0.067000 2.879832e-05
-0.064000 2.569459e-05
-0.061000 2.235731e-05
-0.058000 1.885443e-05
-0.055000 1.525352e-05
-0.052000 1.162057e-05
-0.049000 8.018820e-06
-0.046000 4.507657e-06
-0.043000 1.141694e-06
-0.040000 -2.030084e-06
-0.037000 -4.965000e-06
-0.034000 -7.627228e-06
-0.031000 -9.988183e-06
-0.028000 -1.202674e-05
-0.025000 -1.372932e-05
-0.022000 -1.508978e-05
-0.019000 -1.610919e-05
-0.016000 -1.679547e-05
-0.013000 -1.716287e-05
-0.010000 -1.723137e-05
-0.007000 -1.702594e-05
-0.004000 -1.657577e-05
-0.001000 -1.591341e-05
0.002000 -1.507387e-05
0.005000 -1.409368e-05
0.008000 -1.300997e-05
0.011000 -1.185962e-05
0.014000 -1.067828e-05
0.017000 -9.499676e-06
0.020000 -8.354775e-06
0.023000 -7.271170e-06
0.026000 -6.272510e-06
0.029000 -5.378046e-06
0.032000 -4.602298e-06
0.035000 -3.954841e-06
0.038000 -3.440213e-06
0.041000 -3.057959e-06
0.044000 -2.802781e-06
0.047000 -2.664816e-06
0.050000 -2.630022e-06
0.053000 -2.680660e-06
0.056000 -2.795865e-06
0.059000 -2.952292e-06
0.062000 -3.124822e-06
0.065000 -3.287301e-06
0.068000 -3.413321e-06
0.071000 -3.476990e-06
0.074000 -3.453705e-06
0.077000 -3.320891e-06
0.080000 -3.058694e-06
0.083000 -2.650620e-06
0.086000 -2.084089e-06
0.089000 -1.350909e-06
0.092000 -4.476432e-07
0.095000 6.241250e-07
0.098000 1.857650e-06
0.101000 3.240999e-06
0.104000 4.757147e-06
0.107000 6.384199e-06
0.110000 8.095727e-06
0.113000 9.861224e-06
0.116000 1.164666e-05
0.119000 1.341512e-05
0.122000 1.512756e-05
0.125000 1.674361e-05
0.128000 1.822239e-05
0.131000 1.952345e-05
0.134000 2.060764e-05
0.137000 2.143802e-05
0.140000 2.198079e-05
0.143000 2.220606e-05
0.146000 2.208872e-05
0.149000 2.160910e-05
0.152000 2.075362e-05
0.155000 1.951531e-05
0.158000 1.789422e-05
0.161000 1.589768e-05
0.164000 1.354046e-05
0.167000 1.084477e-05
0.170000 7.840077e-06
0.173000 4.562872e-06
0.176000 1.056188e-06
0.179000 -2.630953e-06
0.182000 -6.444244e-06
0.185000 -1.032492e-05
0.188000 -1.421069e-05
0.191000 -1.803673e-05
0.194000 -2.173684e-05
0.197000 -2.524452e-05
0.200000 -2.849422e-05
0.203000 -3.142250e-05
0.206000 -3.396926e-05
0.209000 -3.607888e-05
0.212000 -3.770133e-05
0.215000 -3.879326e-05
0.218000 -3.931889e-05
0.221000 -3.925089e-05
0.224000 -3.857108e-05
0.227000 -3.727098e-05
0.230000 -3.535225e-05
0.233000 -3.282693e-05
0.236000 -2.971746e-05
0.239000 -2.605662e-05
0.242000 -2.188723e-05
0.245000 -1.726164e-05
0.248000 -1.224112e-05
0.251000 -6.895022e-06
0.254000 -1.299834e-06
0.257000 4.461961e-06
0.260000 1.030311e-05
0.263000 1.613294e-05
0.266000 2.185876e-05
0.269000 2.738742e-05
0.272000 3.262676e-05
0.275000 3.748722e-05
0.278000 4.188332e-05
0.281000 4.573519e-05
0.284000 4.896996e-05
0.287000 5.152315e-05
0.290000 5.333982e-05
0.293000 5.437571e-05
0.296000 5.459815e-05
0.299000 5.398678e-05
0.302000 5.253420e-05
0.305000 5.024621e-05
0.308000 4.714209e-05
0.311000 4.325440e-05
0.314000 3.862880e-05
0.317000 3.332348e-05
0.320000 2.740847e-05
0.323000 2.096470e-05
0.326000 1.408288e-05
0.329000 6.862255e-06
0.332000 -5.909167e-07
0.335000 -8.164891e-06
0.338000 -1.574416e-05
0.341000 -2.321123e-05
0.344000 -3.044848e-05
0.347000 -3.733998e-05
0.350000 -4.377344e-05
0.353000 -4.964198e-05
0.356000 -5.484593e-05
0.359000 -5.929454e-05
0.362000 -6.290750e-05
0.365000 -6.561639e-05
0.368000 -6.736592e-05
0.371000 -6.811498e-05
0.374000 -6.783751e-05
0.377000 -6.652307e-05
0.380000 -6.417724e-05
0.383000 -6.082175e-05
0.386000 -5.649433e-05
0.389000 -5.124833e-05
0.392000 -4.515208e-05
0.395000 -3.828801e-05
0.398000 -3.075154e-05
0.401000 -2.264971e-05
0.404000 -1.409969e-05
0.407000 -5.227031e-06
0.410000 3.836172e-06
0.413000 1.295329e-05
0.416000 2.198521e-05
0.419000 3.079252e-05
0.422000 3.923765e-05
0.425000 4.718704e-05
0.428000 5.451325e-05
0.431000 6.109706e-05
0.434000 6.682935e-05
0.437000 7.161295e-05
0.440000 7.536425e-05
0.443000 7.801464e-05
0.446000 7.951175e-05
0.449000 7.982041e-05
0.452000 7.892335e-05
0.455000 7.682169e-05
0.458000 7.353505e-05
0.461000 6.910149e-05
0.464000 6.357702e-05
0.467000 5.703498e-05
0.470000 4.956501e-05
0.473000 4.127184e-05
0.476000 3.227383e-05
0.479000 2.270123e-05
0.482000 1.269431e-05
0.485000 2.401274e-06
0.488000 -8.023974e-06
0.491000 -1.842412e-05
0.494000 -2.864084e-05
0.497000 -3.851724e-05
0.500000 -4.790027e-05
0.503000 -5.664313e-05
0.506000 -6.460754e-05
0.509000 -7.166595e-05
0.512000 -7.770361e-05
0.515000 -8.262039e-05
0.518000 -8.633247e-05
0.521000 -8.877372e-05
0.524000 -8.989687e-05
0.527000 -8.967437e-05
0.530000 -8.809896e-05
0.533000 -8.518394e-05
0.536000 -8.096310e-05
0.539000 -7.549036e-05
0.542000 -6.883910e-05
0.545000 -6.110116e-05
0.548000 -5.238559e-05
0.551000 -4.281708e-05
0.554000 -3.253415e-05
0.557000 -2.168717e-05
0.560000 -1.043612e-05
0.563000 1.051786e-06
0.566000 1.260460e-05
0.569000 2.404824e-05
0.572000 3.520911e-05
0.575000 4.591677e-05
0.578000 5.600656e-05
0.581000 6.532210e-05
0.584000 7.371776e-05
0.587000 8.106095e-05
0.590000 8.723419e-05
0.593000 9.213699e-05
0.596000 9.568751e-05
0.599000 9.782387e-05
0.602000 9.850525e-05
0.605000 9.771260e-05
0.608000 9.544907e-05
0.611000 9.174007e-05
0.614000 8.663306e-05
0.617000 8.019687e-05
0.620000 7.252086e-05
0.623000 6.371363e-05
0.626000 5.390146e-05
0.629000 4.322657e-05
0.632000 3.184496e-05
0.635000 1.992419e-05
0.638000 7.640883e-06
0.641000 -4.821909e-06
0.644000 -1.727741e-05
0.647000 -2.953794e-05
0.650000 -4.141773e-05
0.653000 -5.273571e-05
0.656000 -6.331830e-05
0.659000 -7.300200e-05
0.662000 -8.163594e-05
0.665000 -8.908414e-05
0.668000 -9.522767e-05
0.671000 -9.996642e-05
0.674000 -1.032207e-04
0.677000 -1.049326e-04
0.680000 -1.050667e-04
0.683000 -1.036108e-04
0.686000 -1.005761e-04
0.689000 -9.599716e-05
0.692000 -8.993124e-05
0.695000 -8.245761e-05
0.698000 -7.367631e-05
0.701000 -6.370661e-05
0.704000 -5.268521e-05
0.707000 -4.076415e-05
0.710000 -2.810844e-05
0.713000 -1.489348e-05
0.716000 -1.302362e-06
0.719000 1.247707e-05
0.722000 2.625515e-05
0.725000 3.984348e-05
0.728000 5.305789e-05
0.731000 6.572149e-05
0.734000 7.766757e-05
0.737000 8.874238e-05
0.740000 9.880773e-05
0.743000 1.077434e-04
0.746000 1.154492e-04
0.749000 1.218470e-04
0.752000 1.268823e-04
0.755000 1.305250e-04
0.758000 1.327708e-04
0.761000 1.336414e-04
0.764000 1.331847e-04
0.767000 1.314743e-04
0.770000 1.286089e-04
0.773000 1.247112e-04
0.776000 1.199267e-04
0.779000 1.144214e-04
0.782000 1.083799e-04
0.785000 1.020030e-04
0.788000 9.550488e-05
0.791000 8.910995e-05
0.794000 8.304995e-05
0.797000 7.756039e-05
0.800000 7.287714e-05
0.803000 6.923281e-05
0.806000 6.685325e-05
0.809000 6.595393e-05
0.812000 6.673642e-05
0.815000 6.938504e-05
0.818000 7.406361e-05
0.821000 8.091240e-05
0.824000 9.004532e-05
0.827000 1.015474e-04
0.830000 1.154727e-04
0.833000 1.318423e-04
0.836000 1.506426e-04
0.839000 1.718248e-04
0.842000 1.953037e-04
0.845000 2.209574e-04
0.848000 2.486277e-04
0.851000 2.781207e-04
0.854000 3.092075e-04
0.857000 3.416258e-04
0.860000 3.750817e-04
0.863000 4.092519e-04
0.866000 4.437863e-04
0.869000 4.783109e-04
0.872000 5.124310e-04
0.875000 5.457349e-04
0.878000 5.777975e-04
0.881000 6.081845e-04
0.884000 6.364561e-04
0.887000 6.621719e-04
0.890000 6.848950e-04
0.893000 7.041964e-04
0.896000 7.196596e-04
0.899000 7.308849e-04
0.902000 7.374940e-04
0.905000 7.391338e-04
0.908000 7.354809e-04
0.911000 7.262453e-04
0.914000 7.111740e-04
0.917000 6.900547e-04
0.920000 6.627184e-04
0.923000 6.290428e-04
0.926000 5.889540e-04
0.929000 5.424293e-04
0.932000 4.894983e-04
0.935000 4.302446e-04
0.938000 3.648061e-04
0.941000 2.933759e-04
0.944000 2.162020e-04
0.947000 1.335867e-04
0.950000 4.588580e-05
0.953000 -4.649283e-05
0.956000 -1.430912e-04
0.959000 -2.434036e-04
0.962000 -3.468789e-04
0.965000 -4.529244e-04
0.968000 -5.609089e-04
0.971000 -6.701667e-04
0.974000 -7.800022e-04
0.977000 -8.896943e-04
0.980000 -9.985016e-04
0.983000 -1.105667e-03
0.986000 -1.210425e-03
0.989000 -1.312005e-03
0.992000 -1.409639e-03
0.995000 -1.502567e-03
0.998000 -1.590044e-03
1.001000 -1.671344e-03
1.004000 -1.745769e-03
1.007000 -1.812654e-03
1.010000 -1.871373e-03
1.013000 -1.921343e-03
1.016000 -1.962036e-03
1.019000 -1.992977e-03
1.022000 -2.013753e-03
1.025000 -2.024019e-03
1.028000 -2.023499e-03
1.031000 -2.011993e-03
1.034000 -1.989378e-03
1.037000 -1.955613e-03
1.040000 -1.910739e-03
1.043000 -1.854884e-03
1.046000 -1.788259e-03
1.049000 -1.711163e-03
1.052000 -1.623976e-03
1.055000 -1.527167e-03
1.058000 -1.421281e-03
1.061000 -1.306943e-03
1.064000 -1.184852e-03
1.067000 -1.055776e-03
1.070000 -9.205462e-04
1.073000 -7.800514e-04
1.076000 -6.352303e-04
1.079000 -4.870642e-04
1.082000 -3.365685e-04
1.085000 -1.847842e-04
1.088000 -3.276848e-05
1.091000 1.184151e-04
1.094000 2.677060e-04
1.097000 4.140570e-04
1.100000 5.564439e-04
1.103000 6.938758e-04
1.106000 8.254043e-04
1.109000 9.501332e-04
1.112000 1.067227e-03
1.115000 1.175920e-03
1.118000 1.275524e-03
1.121000 1.365432e-03
1.124000 1.445129e-03
1.127000 1.514194e-03
1.130000 1.572305e-03
1.133000 1.619241e-03
1.136000 1.654884e-03
1.139000 1.679219e-03
1.142000 1.692336e-03
1.145000 1.694424e-03
1.148000 1.685769e-03
1.151000 1.666752e-03
1.154000 1.637841e-03
1.157000 1.599586e-03
1.160000 1.552611e-03
1.163000 1.497606e-03
1.166000 1.435318e-03
1.169000 1.366543e-03
1.172000 1.292111e-03
1.175000 1.212884e-03
1.178000 1.129737e-03
1.181000 1.043554e-03
1.184000 9.552124e-04
1.187000 8.655780e-04
1.190000 7.754916e-04
1.193000 6.857613e-04
1.196000 5.971541e-04
1.199000 5.103878e-04
1.202000 4.261246e-04
1.205000 3.449652e-04
1.208000 2.674440e-04
1.211000 1.940252e-04
1.214000 1.251008e-04
1.217000 6.098828e-05
1.220000 1.931207e-06
1.223000 -5.190072e-05
1.226000 -1.004096e-04
1.229000 -1.435665e-04
1.232000 -1.814081e-04
1.235000 -2.140316e-04
1.238000 -2.415901e-04
1.241000 -2.642866e-04
1.244000 -2.823675e-04
1.247000 -2.961159e-04
1.250000 -3.058451e-04
1.253000 -3.118914e-04
1.256000 -3.146067e-04
1.259000 -3.143523e-04
1.262000 -3.114920e-04
1.265000 -3.063858e-04
1.268000 -2.993841e-04
1.271000 -2.908231e-04
1.274000 -2.810191e-04
1.277000 -2.702657e-04
1.280000 -2.588300e-04
1.283000 -2.469503e-04
1.286000 -2.348343e-04
1.289000 -2.226585e-04
1.292000 -2.105679e-04
1.295000 -1.986763e-04
1.298000 -1.870677e-04
1.301000 -1.757984e-04
1.304000 -1.648986e-04
1.307000 -1.543761e-04
1.310000 -1.442189e-04
1.313000 -1.343986e-04
1.316000 -1.248746e-04
1.319000 -1.155974e-04
1.322000 -1.065124e-04
1.325000 -9.756392e-05
1.328000 -8.869817e-05
1.331000 -7.986692e-05
1.334000 -7.103023e-05
1.337000 -6.215897e-05
1.340000 -5.323689e-05
1.343000 -4.426222e-05
1.346000 -3.524870e-05
1.349000 -2.622606e-05
1.352000 -1.724007e-05
1.355000 -8.351889e-06
1.358000 3.629578e-07
1.361000 8.816179e-06
1.364000 1.690871e-05
1.367000 2.453311e-05
1.370000 3.157626e-05
1.373000 3.792239e-05
1.376000 4.345615e-05
1.379000 4.806593e-05
1.382000 5.164712e-05
1.385000 5.410529e-05
1.388000 5.535928e-05
1.391000 5.534404e-05
1.394000 5.401320e-05
1.397000 5.134120e-05
1.400000 4.732515e-05
1.403000 4.198603e-05
1.406000 3.536959e-05
1.409000 2.754651e-05
1.412000 1.861217e-05
1.415000 8.685790e-06
1.418000 -2.090999e-06
1.421000 -1.355604e-05
1.424000 -2.552911e-05
1.427000 -3.781474e-05
1.430000 -5.020552e-05
1.433000 -6.248571e-05
1.436000 -7.443508e-05
1.439000 -8.583297e-05
1.442000 -9.646248e-05
1.445000 -1.061146e-04
1.448000 -1.145924e-04
1.451000 -1.217150e-04
1.454000 -1.273211e-04
1.457000 -1.312727e-04
1.460000 -1.334580e-04
1.463000 -1.337941e-04
1.466000 -1.322286e-04
1.469000 -1.287421e-04
1.472000 -1.233480e-04
1.475000 -1.160937e-04
1.478000 -1.070600e-04
1.481000 -9.635981e-05
1.484000 -8.413732e-05
1.487000 -7.056529e-05
1.490000 -5.584257e-05
1.493000 -4.019087e-05
1.496000 -2.385114e-05
1.499000 -7.079472e-06
1.502000 9.857205e-06
1.505000 2.668574e-05
1.508000 4.313147e-05
1.511000 5.892305e-05
1.514000 7.379721e-05
1.517000 8.750342e-05
1.520000 9.980837e-05
1.523000 1.105001e-04
1.526000 1.193920e-04
1.529000 1.263259e-04
1.532000 1.311754e-04
1.535000 1.338478e-04
1.538000 1.342864e-04
1.541000 1.324712e-04
1.544000 1.284198e-04
1.547000 1.221871e-04
1.550000 1.138645e-04
1.553000 1.035787e-04
1.556000 9.148972e-05
1.559000 7.778799e-05
1.562000 6.269164e-05
1.565000 4.644271e-05
1.568000 2.930319e-05
1.571000 1.155068e-05
1.574000 -6.526214e-06
1.577000 -2.463274e-05
1.580000 -4.247287e-05
1.583000 -5.975430e-05
1.586000 -7.619331e-05
1.589000 -9.151955e-05
1.592000 -1.054806e-04
1.595000 -1.178460e-04
1.598000 -1.284116e-04
1.601000 -1.370024e-04
1.604000 -1.434759e-04
1.607000 -1.477244e-04
1.610000 -1.496767e-04
1.613000 -1.492995e-04
1.616000 -1.465977e-04
1.619000 -1.416146e-04
1.622000 -1.344310e-04
1.625000 -1.251638e-04
1.628000 -1.139642e-04
1.631000 -1.010149e-04
1.634000 -8.652747e-05
1.637000 -7.073823e-05
1.640000 -5.390464e-05
1.643000 -3.630087e-05
1.646000 -1.821313e-05
1.649000 6.504877e-08
1.652000 1.823782e-05
1.655000 3.601196e-05
1.658000 5.310176e-05
1.661000 6.923381e-05
1.664000 8.415158e-05
1.667000 9.761960e-05
1.670000 1.094274e-04
1.673000 1.193930e-04
1.676000 1.273656e-04
1.679000 1.332283e-04
1.682000 1.368997e-04
1.685000 1.383351e-04
1.688000 1.375271e-04
1.691000 1.345053e-04
1.694000 1.293360e-04
1.697000 1.221202e-04
1.700000 1.129921e-04
1.703000 1.021163e-04
1.706000 8.968500e-05
1.709000 7.591417e-05
1.712000 6.103994e-05
1.715000 4.531421e-05
1.718000 2.900030e-05
1.721000 1.236830e-05
1.724000 -4.309613e-06
1.727000 -2.076379e-05
1.730000 -3.673173e-05
1.733000 -5.196239e-05
1.736000 -6.622038e-05
1.739000 -7.928972e-05
1.742000 -9.097721e-05
1.745000 -1.011154e-04
1.748000 -1.095651e-04
1.751000 -1.162171e-04
1.754000 -1.209937e-04
1.757000 -1.238493e-04
1.760000 -1.247707e-04
1.763000 -1.237768e-04
1.766000 -1.209172e-04
1.769000 -1.162712e-04
1.772000 -1.099456e-04
1.775000 -1.020723e-04
1.778000 -9.280525e-05
1.781000 -8.231779e-05
1.784000 -7.079882e-05
1.787000 -5.844938e-05
1.790000 -4.547890e-05
1.793000 -3.210144e-05
1.796000 -1.853194e-05
1.799000 -4.982617e-06
1.802000 8.340562e-06
1.805000 2.124110e-05
1.808000 3.353497e-05
1.811000 4.505326e-05
1.814000 5.564445e-05
1.817000 6.517635e-05
1.820000 7.353753e-05
1.823000 8.063842e-05
1.826000 8.641191e-05
1.829000 9.081354e-05
1.832000 9.382132e-05
1.835000 9.543509e-05
1.838000 9.567559e-05
1.841000 9.458314e-05
1.844000 9.221614e-05
1.847000 8.864919e-05
1.850000 8.397116e-05
1.853000 7.828303e-05
1.856000 7.169567e-05
1.859000 6.432760e-05
1.862000 5.630271e-05
1.865000 4.774811e-05
1.868000 3.879199e-05
1.871000 2.956164e-05
1.874000 2.018170e-05
1.877000 1.077248e-05
1.880000 1.448579e-06
1.883000 -7.682294e-06
1.886000 -1.652031e-05
1.889000 -2.497423e-05
1.892000 -3.296195e-05
1.895000 -4.041073e-05
1.898000 -4.725739e-05
1.901000 -5.344816e-05
1.904000 -5.893848e-05
1.907000 -6.369266e-05
1.910000 -6.768338e-05
1.913000 -7.089122e-05
1.916000 -7.330406e-05
1.919000 -7.491647e-05
1.922000 -7.572917e-05
1.925000 -7.574850e-05
1.928000 -7.498586e-05
1.931000 -7.345733e-05
1.934000 -7.118334e-05
1.937000 -6.818837e-05
1.940000 -6.450078e-05
1.943000 -6.015276e-05
1.946000 -5.518031e-05
1.949000 -4.962330e-05
1.952000 -4.352559e-05
1.955000 -3.693523e-05
1.958000 -2.990460e-05
1.961000 -2.249059e-05
1.964000 -1.475481e-05
1.967000 -6.763614e-06
1.970000 1.411831e-06
1.973000 9.695613e-06
1.976000 1.800727e-05
1.979000 2.626209e-05
1.982000 3.437162e-05
1.985000 4.224420e-05
1.988000 4.978583e-05
1.991000 5.690108e-05
1.994000 6.349417e-05
1.997000 6.947024e-05
2.000000 7.473670e-05
2.003000 7.920476e-05
2.006000 8.279096e-05
2.009000 8.541880e-05
2.012000 8.702043e-05
2.015000 8.753822e-05
2.018000 8.692641e-05
2.021000 8.515257e-05
2.024000 8.219894e-05
2.027000 7.806368e-05
2.030000 7.276182e-05
2.033000 6.632597e-05
2.036000 5.880686e-05
2.039000 5.027346e-05
2.042000 4.081282e-05
2.045000 3.052962e-05
2.048000 1.954529e-05
2.051000 7.996825e-06
2.054000 -3.964709e-06
2.057000 -1.617607e-05
2.060000 -2.846401e-05
2.063000 -4.064768e-05
2.066000 -5.254141e-05
2.069000 -6.395752e-05
2.072000 -7.470945e-05
2.075000 -8.461489e-05
2.078000 -9.349902e-05
2.081000 -1.011977e-04
2.084000 -1.075606e-04
2.087000 -1.124542e-04
2.090000 -1.157646e-04
2.093000 -1.174002e-04
2.096000 -1.172937e-04
2.099000 -1.154042e-04
2.102000 -1.117185e-04
2.105000 -1.062524e-04
2.108000 -9.905091e-05
2.111000 -9.018856e-05
2.114000 -7.976881e-05
2.117000 -6.792306e-05
2.120000 -5.480918e-05
2.123000 -4.060945e-05
2.126000 -2.552807e-05
2.129000 -9.788204e-06
2.132000 6.371347e-06
2.135000 2.269987e-05
2.138000 3.893875e-05
2.141000 5.482565e-05
2.144000 7.009893e-05
2.147000 8.450209e-05
2.150000 9.778822e-05
2.153000 1.097244e-04
2.156000 1.200959e-04
2.159000 1.287101e-04
2.162000 1.354004e-04
2.165000 1.400291e-04
2.168000 1.424905e-04
2.171000 1.427132e-04
2.174000 1.406619e-04
2.177000 1.363384e-04
2.180000 1.297820e-04
2.183000 1.210701e-04
2.186000 1.103165e-04
2.189000 9.767060e-05
2.192000 8.331517e-05
2.195000 6.746366e-05
2.198000 5.035702e-05
2.201000 3.225997e-05
2.204000 1.345677e-05
2.207000 -5.753340e-06
2.210000 -2.506103e-05
2.213000 -4.415201e-05
2.216000 -6.271230e-05
2.219000 -8.043355e-05
2.222000 -9.701828e-05
2.225000 -1.121851e-04
2.228000 -1.256734e-04
2.231000 -1.372483e-04
2.234000 -1.467046e-04
2.237000 -1.538704e-04
2.240000 -1.586107e-04
2.243000 -1.608294e-04
2.246000 -1.604719e-04
2.249000 -1.575257e-04
2.252000 -1.520213e-04
2.255000 -1.440318e-04
2.258000 -1.336723e-04
2.261000 -1.210975e-04
2.264000 -1.065003e-04
2.267000 -9.010798e-05
2.270000 -7.217905e-05
2.273000 -5.299886e-05
2.276000 -3.287498e-05
2.279000 -1.213221e-05
2.282000 8.892893e-06
2.285000 2.985754e-05
2.288000 5.041846e-05
2.291000 7.023769e-05
2.294000 8.898822e-05
2.297000 1.063596e-04
2.300000 1.220630e-04
2.303000 1.358364e-04
2.306000 1.474489e-04
2.309000 1.567046e-04
2.312000 1.634463e-04
2.315000 1.675578e-04
2.318000 1.689662e-04
2.321000 1.676431e-04
2.324000 1.636053e-04
2.327000 1.569143e-04
2.330000 1.476757e-04
2.333000 1.360373e-04
2.336000 1.221864e-04
2.339000 1.063475e-04
2.342000 8.877766e-05
2.345000 6.976276e-05
2.348000 4.961266e-05
2.351000 2.865596e-05
2.354000 7.234581e-06
2.357000 -1.430197e-05
2.360000 -3.560240e-05
2.363000 -5.631949e-05
2.366000 -7.611585e-05
2.369000 -9.466954e-05
2.372000 -1.116794e-04
2.375000 -1.268701e-04
2.378000 -1.399964e-04
2.381000 -1.508477e-04
2.384000 -1.592509e-04
2.387000 -1.650735e-04
2.390000 -1.682258e-04
2.393000 -1.686620e-04
2.396000 -1.663811e-04
2.399000 -1.614267e-04
2.402000 -1.538862e-04
2.405000 -1.438891e-04
2.408000 -1.316049e-04
2.411000 -1.172402e-04
2.414000 -1.010347e-04
2.417000 -8.325784e-05
2.420000 -6.420358e-05
2.423000 -4.418586e-05
2.426000 -2.353315e-05
2.429000 -2.583015e-06
2.432000 1.832351e-05
2.435000 3.884758e-05
2.438000 5.865807e-05
2.441000 7.743709e-05
2.444000 9.488507e-05
2.447000 1.107257e-04
2.450000 1.247102e-04
2.453000 1.366216e-04
2.456000 1.462778e-04
2.459000 1.535344e-04
2.462000 1.582873e-04
2.465000 1.604735e-04
2.468000 1.600724e-04
2.471000 1.571058e-04
2.474000 1.516371e-04
2.477000 1.437700e-04
2.480000 1.336467e-04
2.483000 1.214454e-04
2.486000 1.073766e-04
2.489000 9.168010e-05
2.492000 7.462033e-05
2.495000 5.648210e-05
2.498000 3.756569e-05
2.501000 1.818184e-05
2.504000 -1.353450e-06
2.507000 -2.072412e-05
2.510000 -3.961926e-05
2.513000 -5.773813e-05
2.516000 -7.479501e-05
2.519000 -9.052379e-05
2.522000 -1.046821e-04
2.525000 -1.170551e-04
2.528000 -1.274589e-04
2.531000 -1.357429e-04
2.534000 -1.417925e-04
2.537000 -1.455301e-04
2.540000 -1.469164e-04
2.543000 -1.459507e-04
2.546000 -1.426703e-04
2.549000 -1.371495e-04
2.552000 -1.294984e-04
2.555000 -1.198604e-04
2.558000 -1.084098e-04
2.561000 -9.534812e-05
2.564000 -8.090129e-05
2.567000 -6.531513e-05
2.570000 -4.885132e-05
2.573000 -3.178300e-05
2.576000 -1.439013e-05
2.579000 3.045125e-06
2.582000 2.024301e-05
2.585000 3.693074e-05
2.588000 5.284681e-05
2.591000 6.774519e-05
2.594000 8.139912e-05
2.597000 9.360458e-05
