-0.400000 -8.668570e-05
-0.397000 -8.742211e-05
-0.394000 -8.682616e-05
-0.391000 -8.489336e-05
-0.388000 -8.164008e-05
-0.385000 -7.710361e-05
-0.382000 -7.134181e-05
-0.379000 -6.443254e-05
-0.376000 -5.647262e-05
-0.373000 -4.757661e-05
-0.370000 -3.787516e-05
-0.367000 -2.751312e-05
-0.364000 -1.664740e-05
-0.361000 -5.444578e-06
-0.358000 5.921673e-06
-0.355000 1.727332e-05
-0.352000 2.843082e-05
-0.349000 3.921601e-05
-0.346000 4.945501e-05
-0.343000 5.898114e-05
-0.340000 6.763773e-05
-0.337000 7.528072e-05
-0.334000 8.178122e-05
-0.331000 8.702775e-05
-0.328000 9.092821e-05
-0.325000 9.341162e-05
-0.322000 9.442945e-05
-0.319000 9.395662e-05
-0.316000 9.199210e-05
-0.313000 8.855915e-05
-0.310000 8.370510e-05
-0.307000 7.750078e-05
-0.304000 7.003947e-05
-0.301000 6.143556e-05
-0.298000 5.182277e-05
-0.295000 4.135204e-05
-0.292000 3.018916e-05
-0.289000 1.851210e-05
-0.286000 6.508084e-06
-0.283000 -5.629449e-06
-0.280000 -1.770404e-05
-0.277000 -2.951946e-05
-0.274000 -4.088301e-05
-0.271000 -5.160871e-05
-0.268000 -6.152045e-05
-0.265000 -7.045496e-05
-0.262000 -7.826455e-05
-0.259000 -8.481966e-05
-0.256000 -9.001104e-05
-0.253000 -9.375161e-05
-0.250000 -9.597798e-05
-0.247000 -9.665150e-05
-0.244000 -9.575898e-05
-0.241000 -9.331290e-05
-0.238000 -8.935118e-05
-0.235000 -8.393659e-05
-0.232000 -7.715565e-05
-0.229000 -6.911714e-05
-0.226000 -5.995027e-05
-0.223000 -4.980244e-05
-0.220000 -3.883674e-05
-0.217000 -2.722911e-05
-0.214000 -1.516535e-05
-0.211000 -2.837946e-06
-0.208000 9.557292e-06
-0.205000 2.182453e-05
-0.202000 3.377130e-05
-0.199000 4.521179e-05
-0.196000 5.597002e-05
-0.193000 6.588285e-05
-0.190000 7.480277e-05
-0.187000 8.260040e-05
-0.184000 8.916671e-05
-0.181000 9.441483e-05
-0.178000 9.828154e-05
-0.175000 1.007283e-04
-0.172000 1.017420e-04
-0.169000 1.013348e-04
-0.166000 9.954438e-05
-0.163000 9.643300e-05
-0.160000 9.208641e-05
-0.157000 8.661244e-05
-0.154000 8.013916e-05
-0.151000 7.281267e-05
-0.148000 6.479466e-05
-0.145000 5.625968e-05
-0.142000 4.739223e-05
-0.139000 3.838365e-05
-0.136000 2.942898e-05
-0.133000 2.072376e-05
-0.130000 1.246080e-05
-0.127000 4.827030e-06
-0.124000 -1.999471e-06
-0.121000 -7.852365e-06
-0.118000 -1.257968e-05
-0.115000 -1.604621e-05
-0.112000 -1.813558e-05
-0.109000 -1.875204e-05
-0.106000 -1.782189e-05
-0.103000 -1.529452e-05
-0.100000 -1.114311e-05
-0.097000 -5.364913e-06
-0.094000 2.018829e-06
-0.091000 1.096333e-05
-0.088000 2.140107e-05
-0.085000 3.324297e-05
-0.082000 4.637983e-05
-0.079000 6.068410e-05
-0.076000 7.601181e-05
-0.073000 9.220482e-05
-0.070000 1.090931e-04
-0.067000 1.264974e-04
-0.064000 1.442315e-04
-0.061000 1.621049e-04
-0.058000 1.799255e-04
-0.055000 1.975021e-04
-0.052000 2.146465e-04
-0.049000 2.311762e-04
-0.046000 2.469162e-04
-0.043000 2.617008e-04
-0.040000 2.753758e-04
-0.037000 2.877993e-04
-0.034000 2.988430e-04
-0.031000 3.083936e-04
-0.028000 3.163526e-04
-0.025000 3.226373e-04
-0.022000 3.271804e-04
-0.019000 3.299302e-04
-0.016000 3.308498e-04
-0.013000 3.299166e-04
-0.010000 3.271217e-04
-0.007000 3.224683e-04
-0.004000 3.159711e-04
-0.001000 3.076549e-04
0.002000 2.975531e-04
0.005000 2.857065e-04
0.008000 2.721617e-04
0.011000 2.569702e-04
0.014000 2.401869e-04
0.017000 2.218685e-04
0.020000 2.020734e-04
0.023000 1.808599e-04
0.026000 1.582857e-04
0.029000 1.344076e-04
0.032000 1.092807e-04
0.035000 8.295872e-05
0.038000 5.549338e-05
0.041000 2.693506e-05
0.044000 -2.666931e-06
0.047000 -3.326384e-05
0.050000 -6.480667e-05
0.053000 -9.724532e-05
0.056000 -1.305276e-04
0.059000 -1.645982e-04
0.062000 -1.993972e-04
0.065000 -2.348595e-04
0.068000 -2.709129e-04
0.071000 -3.074773e-04
0.074000 -3.444637e-04
0.077000 -3.817728e-04
0.080000 -4.192943e-04
0.083000 -4.569059e-04
0.086000 -4.944731e-04
0.089000 -5.318483e-04
0.092000 -5.688710e-04
0.095000 -6.053676e-04
0.098000 -6.411518e-04
0.101000 -6.760249e-04
0.104000 -7.097770e-04
0.107000 -7.421877e-04
0.110000 -7.730277e-04
0.113000 -8.020600e-04
0.116000 -8.290420e-04
0.119000 -8.537275e-04
0.122000 -8.758686e-04
0.125000 -8.952187e-04
0.128000 -9.115344e-04
0.131000 -9.245785e-04
0.134000 -9.341226e-04
0.137000 -9.399503e-04
0.140000 -9.418593e-04
0.143000 -9.396648e-04
0.146000 -9.332023e-04
0.149000 -9.223296e-04
0.152000 -9.069300e-04
0.155000 -8.869144e-04
0.158000 -8.622236e-04
0.161000 -8.328300e-04
0.164000 -7.987395e-04
0.167000 -7.599931e-04
0.170000 -7.166674e-04
0.173000 -6.688761e-04
0.176000 -6.167700e-04
0.179000 -5.605370e-04
0.182000 -5.004024e-04
0.185000 -4.366275e-04
0.188000 -3.695091e-04
0.191000 -2.993778e-04
0.194000 -2.265964e-04
0.197000 -1.515577e-04
0.200000 -7.468209e-05
0.203000 3.585456e-06
0.206000 8.277822e-05
0.209000 1.624113e-04
0.212000 2.419852e-04
0.215000 3.209896e-04
0.218000 3.989078e-04
0.221000 4.752204e-04
0.224000 5.494100e-04
0.227000 6.209658e-04
0.230000 6.893874e-04
0.233000 7.541901e-04
0.236000 8.149086e-04
0.239000 8.711019e-04
0.242000 9.223571e-04
0.245000 9.682939e-04
0.248000 1.008568e-03
0.251000 1.042874e-03
0.254000 1.070952e-03
0.257000 1.092585e-03
0.260000 1.107607e-03
0.263000 1.115901e-03
0.266000 1.117404e-03
0.269000 1.112105e-03
0.272000 1.100049e-03
0.275000 1.081335e-03
0.278000 1.056118e-03
0.281000 1.024606e-03
0.284000 9.870591e-04
0.287000 9.437894e-04
0.290000 8.951570e-04
0.293000 8.415682e-04
0.296000 7.834714e-04
0.299000 7.213540e-04
0.302000 6.557379e-04
0.305000 5.871748e-04
0.308000 5.162415e-04
0.311000 4.435345e-04
0.314000 3.696643e-04
0.317000 2.952501e-04
0.320000 2.209131e-04
0.323000 1.472715e-04
0.326000 7.493362e-05
0.329000 4.492292e-06
0.332000 -6.348107e-05
0.335000 -1.284423e-04
0.338000 -1.898797e-04
0.341000 -2.473198e-04
0.344000 -3.003315e-04
0.347000 -3.485309e-04
0.350000 -3.915854e-04
0.353000 -4.292164e-04
0.356000 -4.612030e-04
0.359000 -4.873833e-04
0.362000 -5.076570e-04
0.365000 -5.219853e-04
0.368000 -5.303915e-04
0.371000 -5.329607e-04
0.374000 -5.298383e-04
0.377000 -5.212279e-04
0.380000 -5.073891e-04
0.383000 -4.886341e-04
0.386000 -4.653235e-04
0.389000 -4.378624e-04
0.392000 -4.066947e-04
0.395000 -3.722983e-04
0.398000 -3.351787e-04
0.401000 -2.958630e-04
0.404000 -2.548934e-04
0.407000 -2.128205e-04
0.410000 -1.701964e-04
0.413000 -1.275683e-04
0.416000 -8.547131e-05
0.419000 -4.442238e-05
0.422000 -4.913732e-06
0.425000 3.259294e-05
0.428000 6.767201e-05
0.431000 9.993896e-05
0.434000 1.290548e-04
0.437000 1.547298e-04
0.440000 1.767269e-04
0.443000 1.948638e-04
0.446000 2.090150e-04
0.449000 2.191120e-04
0.452000 2.251443e-04
0.455000 2.271579e-04
0.458000 2.252542e-04
0.461000 2.195876e-04
0.464000 2.103625e-04
0.467000 1.978297e-04
0.470000 1.822818e-04
0.473000 1.640488e-04
0.476000 1.434921e-04
0.479000 1.209993e-04
0.482000 9.697772e-05
0.485000 7.184814e-05
0.488000 4.603835e-05
0.491000 1.997661e-05
0.494000 -5.914785e-06
0.497000 -3.122581e-05
0.500000 -5.556473e-05
0.503000 -7.856379e-05
0.506000 -9.988441e-05
0.509000 -1.192220e-04
0.512000 -1.363100e-04
0.515000 -1.509234e-04
0.518000 -1.628817e-04
0.521000 -1.720506e-04
0.524000 -1.783438e-04
0.527000 -1.817230e-04
0.530000 -1.821981e-04
0.533000 -1.798258e-04
0.536000 -1.747081e-04
0.539000 -1.669898e-04
0.542000 -1.568552e-04
0.545000 -1.445246e-04
0.548000 -1.302499e-04
0.551000 -1.143099e-04
0.554000 -9.700525e-05
0.557000 -7.865298e-05
0.560000 -5.958109e-05
0.563000 -4.012279e-05
0.566000 -2.061083e-05
0.569000 -1.371963e-06
0.572000 1.727844e-05
0.575000 3.504153e-05
0.578000 5.163968e-05
0.581000 6.682084e-05
0.584000 8.036234e-05
0.587000 9.207413e-05
0.590000 1.018015e-04
0.593000 1.094268e-04
0.596000 1.148713e-04
0.599000 1.180954e-04
0.602000 1.190985e-04
0.605000 1.179188e-04
0.608000 1.146315e-04
0.611000 1.093467e-04
0.614000 1.022073e-04
0.617000 9.338554e-05
0.620000 8.307950e-05
0.623000 7.150912e-05
0.626000 5.891196e-05
0.629000 4.553863e-05
0.632000 3.164809e-05
0.635000 1.750291e-05
0.638000 3.364484e-06
0.641000 -1.051159e-05
0.644000 -2.388006e-05
0.647000 -3.651016e-05
0.650000 -4.818960e-05
0.653000 -5.872803e-05
0.656000 -6.796008e-05
0.659000 -7.574797e-05
0.662000 -8.198348e-05
0.665000 -8.658940e-05
0.668000 -8.952041e-05
0.671000 -9.076332e-05
0.674000 -9.033670e-05
0.677000 -8.829001e-05
0.680000 -8.470207e-05
0.683000 -7.967907e-05
0.686000 -7.335205e-05
0.689000 -6.587401e-05
0.692000 -5.741658e-05
0.695000 -4.816644e-05
0.698000 -3.832145e-05
0.701000 -2.808669e-05
0.704000 -1.767034e-05
0.707000 -7.279614e-06
0.710000 2.883269e-06
0.713000 1.262493e-05
0.716000 2.176448e-05
0.719000 3.013687e-05
0.722000 3.759589e-05
0.725000 4.401673e-05
0.728000 4.929814e-05
0.731000 5.336405e-05
0.734000 5.616468e-05
0.737000 5.767715e-05
0.740000 5.790543e-05
0.743000 5.687990e-05
0.746000 5.465627e-05
0.749000 5.131403e-05
0.752000 4.695444e-05
0.755000 4.169810e-05
0.758000 3.568211e-05
0.761000 2.905698e-05
0.764000 2.198322e-05
0.767000 1.462786e-05
0.770000 7.160735e-06
0.773000 -2.491239e-07
0.776000 -7.437123e-06
0.779000 -1.424658e-05
0.782000 -2.053203e-05
0.785000 -2.616218e-05
0.788000 -3.102267e-05
0.791000 -3.501829e-05
0.794000 -3.807489e-05
0.797000 -4.014075e-05
0.800000 -4.118748e-05
0.803000 -4.121040e-05
0.806000 -4.022837e-05
0.809000 -3.828315e-05
0.812000 -3.543827e-05
0.815000 -3.177732e-05
0.818000 -2.740199e-05
0.821000 -2.242950e-05
0.824000 -1.698992e-05
0.827000 -1.122305e-05
0.830000 -5.275169e-06
0.833000 7.043257e-07
0.836000 6.566392e-06
0.839000 1.216575e-05
0.842000 1.736421e-05
0.845000 2.203383e-05
0.848000 2.605982e-05
0.851000 2.934316e-05
0.854000 3.180285e-05
0.857000 3.337771e-05
0.860000 3.402783e-05
0.863000 3.373540e-05
0.866000 3.250512e-05
0.869000 3.036415e-05
0.872000 2.736138e-05
0.875000 2.356644e-05
0.878000 1.906799e-05
0.881000 1.397182e-05
0.884000 8.398355e-06
0.887000 2.479986e-06
0.890000 -3.641979e-06
0.893000 -9.820517e-06
0.896000 -1.590623e-05
0.899000 -2.175078e-05
0.902000 -2.721024e-05
0.905000 -3.214841e-05
0.908000 -3.643997e-05
0.911000 -3.997333e-05
0.914000 -4.265329e-05
0.917000 -4.440320e-05
0.920000 -4.516687e-05
0.923000 -4.490990e-05
0.926000 -4.362060e-05
0.929000 -4.131040e-05
0.932000 -3.801376e-05
0.935000 -3.378751e-05
0.938000 -2.870981e-05
0.941000 -2.287853e-05
0.944000 -1.640926e-05
0.947000 -9.432905e-06
0.950000 -2.092936e-06
0.953000 5.457628e-06
0.956000 1.305946e-05
0.959000 2.055031e-05
0.962000 2.776848e-05
0.965000 3.455626e-05
0.968000 4.076334e-05
0.971000 4.625001e-05
0.974000 5.089022e-05
0.977000 5.457430e-05
0.980000 5.721139e-05
0.983000 5.873142e-05
0.986000 5.908671e-05
0.989000 5.825310e-05
0.992000 5.623059e-05
0.995000 5.304344e-05
0.998000 4.873985e-05
1.001000 4.339108e-05
1.004000 3.709009e-05
1.007000 2.994981e-05
1.010000 2.210093e-05
1.013000 1.368931e-05
1.016000 4.873172e-06
1.019000 -4.180040e-06
1.022000 -1.329697e-05
1.025000 -2.230175e-05
1.028000 -3.101949e-05
1.031000 -3.927972e-05
1.034000 -4.691978e-05
1.037000 -5.378798e-05
1.040000 -5.974662e-05
1.043000 -6.467472e-05
1.046000 -6.847035e-05
1.049000 -7.105268e-05
1.052000 -7.236354e-05
1.055000 -7.236861e-05
1.058000 -7.105805e-05
1.061000 -6.844676e-05
1.064000 -6.457410e-05
1.067000 -5.950312e-05
1.070000 -5.331943e-05
1.073000 -4.612959e-05
1.076000 -3.805906e-05
1.079000 -2.924987e-05
1.082000 -1.985798e-05
1.085000 -1.005035e-05
1.088000 -1.844887e-09
1.091000 1.010801e-05
1.094000 2.009833e-05
1.097000 2.979023e-05
1.100000 3.901003e-05
1.103000 4.759248e-05
1.106000 5.538369e-05
1.109000 6.224393e-05
1.112000 6.805010e-05
1.115000 7.269791e-05
1.118000 7.610369e-05
1.121000 7.820580e-05
1.124000 7.896570e-05
1.127000 7.836852e-05
1.130000 7.642323e-05
1.133000 7.316238e-05
1.136000 6.864147e-05
1.139000 6.293780e-05
1.142000 5.614908e-05
1.145000 4.839155e-05
1.148000 3.979794e-05
1.151000 3.051500e-05
1.154000 2.070092e-05
1.157000 1.052251e-05
1.160000 1.522984e-07
1.163000 -1.023452e-05
1.166000 -2.046307e-05
1.169000 -3.036178e-05
1.172000 -3.976535e-05
1.175000 -4.851745e-05
1.178000 -5.647337e-05
1.181000 -6.350237e-05
1.184000 -6.948980e-05
1.187000 -7.433892e-05
1.190000 -7.797239e-05
1.193000 -8.033344e-05
1.196000 -8.138665e-05
1.199000 -8.111840e-05
1.202000 -7.953690e-05
1.205000 -7.667195e-05
1.208000 -7.257419e-05
1.211000 -6.731419e-05
1.214000 -6.098108e-05
1.217000 -5.368096e-05
1.220000 -4.553502e-05
1.223000 -3.667744e-05
1.226000 -2.725314e-05
1.229000 -1.741529e-05
1.232000 -7.322790e-06
1.235000 2.862308e-06
1.238000 1.297747e-05
1.241000 2.286227e-05
1.244000 3.236092e-05
1.247000 4.132474e-05
1.250000 4.961441e-05
1.253000 5.710213e-05
1.256000 6.367353e-05
1.259000 6.922934e-05
1.262000 7.368683e-05
1.265000 7.698095e-05
1.268000 7.906519e-05
1.271000 7.991216e-05
1.274000 7.951385e-05
1.277000 7.788156e-05
1.280000 7.504560e-05
1.283000 7.105466e-05
1.286000 6.597490e-05
1.289000 5.988880e-05
1.292000 5.289378e-05
1.295000 4.510060e-05
1.298000 3.663157e-05
1.301000 2.761863e-05
1.304000 1.820128e-05
1.307000 8.524409e-06
1.310000 -1.263885e-06
1.313000 -1.101455e-05
1.316000 -2.057983e-05
1.319000 -2.981540e-05
1.322000 -3.858258e-05
1.325000 -4.675026e-05
1.328000 -5.419689e-05
1.331000 -6.081216e-05
1.334000 -6.649860e-05
1.337000 -7.117293e-05
1.340000 -7.476726e-05
1.343000 -7.722996e-05
1.346000 -7.852642e-05
1.349000 -7.863943e-05
1.352000 -7.756942e-05
1.355000 -7.533438e-05
1.358000 -7.196952e-05
1.361000 -6.752675e-05
1.364000 -6.207389e-05
1.367000 -5.569361e-05
1.370000 -4.848221e-05
1.373000 -4.054822e-05
1.376000 -3.201077e-05
1.379000 -2.299788e-05
1.382000 -1.364454e-05
1.385000 -4.090745e-06
1.388000 5.520537e-06
1.391000 1.504548e-05
1.394000 2.434149e-05
1.397000 3.326936e-05
1.400000 4.169524e-05
1.403000 4.949268e-05
1.406000 5.654452e-05
1.409000 6.274457e-05
1.412000 6.799930e-05
1.415000 7.222919e-05
1.418000 7.536997e-05
1.421000 7.737364e-05
1.424000 7.820919e-05
1.427000 7.786315e-05
1.430000 7.633982e-05
1.433000 7.366128e-05
1.436000 6.986710e-05
1.439000 6.501378e-05
1.442000 5.917398e-05
1.445000 5.243547e-05
1.448000 4.489979e-05
1.451000 3.668081e-05
1.454000 2.790298e-05
1.457000 1.869951e-05
1.460000 9.210275e-06
1.463000 -4.202485e-07
1.466000 -1.004523e-05
1.469000 -1.951774e-05
1.472000 -2.869301e-05
1.475000 -3.743072e-05
1.478000 -4.559712e-05
1.481000 -5.306720e-05
1.484000 -5.972660e-05
1.487000 -6.547343e-05
1.490000 -7.021988e-05
1.493000 -7.389360e-05
1.496000 -7.643885e-05
1.499000 -7.781742e-05
1.502000 -7.800918e-05
1.505000 -7.701242e-05
1.508000 -7.484390e-05
1.511000 -7.153856e-05
1.514000 -6.714893e-05
1.517000 -6.174432e-05
1.520000 -5.540972e-05
1.523000 -4.824439e-05
1.526000 -4.036027e-05
1.529000 -3.188024e-05
1.532000 -2.293611e-05
1.535000 -1.366652e-05
1.538000 -4.214748e-06
1.541000 5.273563e-06
1.544000 1.465271e-05
1.547000 2.377923e-05
1.550000 3.251412e-05
1.553000 4.072502e-05
1.556000 4.828825e-05
1.559000 5.509070e-05
1.562000 6.103152e-05
1.565000 6.602368e-05
1.568000 6.999518e-05
1.571000 7.289011e-05
1.574000 7.466940e-05
1.577000 7.531134e-05
1.580000 7.481177e-05
1.583000 7.318400e-05
1.586000 7.045853e-05
1.589000 6.668241e-05
1.592000 6.191840e-05
1.595000 5.624390e-05
1.598000 4.974962e-05
1.601000 4.253812e-05
1.604000 3.472214e-05
1.607000 2.642279e-05
1.610000 1.776770e-05
1.613000 8.888951e-06
1.616000 -7.887517e-08
1.619000 -9.000786e-06
1.622000 -1.774339e-05
1.625000 -2.617690e-05
1.628000 -3.417701e-05
1.631000 -4.162677e-05
1.634000 -4.841818e-05
1.637000 -5.445381e-05
1.640000 -5.964814e-05
1.643000 -6.392870e-05
1.646000 -6.723709e-05
1.649000 -6.952974e-05
1.652000 -7.077843e-05
1.655000 -7.097061e-05
1.658000 -7.010949e-05
1.661000 -6.821388e-05
1.664000 -6.531781e-05
1.667000 -6.146996e-05
1.670000 -5.673285e-05
1.673000 -5.118181e-05
1.676000 -4.490384e-05
1.679000 -3.799624e-05
1.682000 -3.056513e-05
1.685000 -2.272384e-05
1.688000 -1.459118e-05
1.691000 -6.289662e-06
1.694000 2.056326e-06
1.697000 1.032240e-05
1.700000 1.838602e-05
1.703000 2.612833e-05
1.706000 3.343591e-05
1.709000 4.020246e-05
1.712000 4.633038e-05
1.715000 5.173219e-05
1.718000 5.633185e-05
1.721000 6.006579e-05
1.724000 6.288393e-05
1.727000 6.475026e-05
1.730000 6.564345e-05
1.733000 6.555699e-05
1.736000 6.449932e-05
1.739000 6.249352e-05
1.742000 5.957697e-05
1.745000 5.580059e-05
1.748000 5.122805e-05
1.751000 4.593464e-05
1.754000 4.000603e-05
1.757000 3.353686e-05
1.760000 2.662915e-05
1.763000 1.939071e-05
1.766000 1.193331e-05
1.769000 4.370948e-06
1.772000 -3.182020e-06
1.775000 -1.061266e-05
1.778000 -1.781122e-05
1.781000 -2.467289e-05
1.784000 -3.109932e-05
1.787000 -3.700014e-05
1.790000 -4.229427e-05
1.793000 -4.691109e-05
1.796000 -5.079136e-05
1.799000 -5.388798e-05
1.802000 -5.616657e-05
1.805000 -5.760575e-05
1.808000 -5.819721e-05
1.811000 -5.794565e-05
1.814000 -5.686838e-05
1.817000 -5.499481e-05
1.820000 -5.236569e-05
1.823000 -4.903224e-05
1.826000 -4.505503e-05
1.829000 -4.050289e-05
1.832000 -3.545155e-05
1.835000 -2.998229e-05
1.838000 -2.418056e-05
1.841000 -1.813453e-05
1.844000 -1.193366e-05
1.847000 -5.667299e-06
1.850000 5.766390e-07
1.853000 6.712957e-06
1.856000 1.266034e-05
1.859000 1.834239e-05
1.862000 2.368860e-05
1.865000 2.863511e-05
1.868000 3.312534e-05
1.871000 3.711055e-05
1.874000 4.055013e-05
1.877000 4.341185e-05
1.880000 4.567192e-05
1.883000 4.731489e-05
1.886000 4.833353e-05
1.889000 4.872850e-05
1.892000 4.850798e-05
1.895000 4.768721e-05
1.898000 4.628796e-05
1.901000 4.433796e-05
1.904000 4.187029e-05
1.907000 3.892280e-05
1.910000 3.553740e-05
1.913000 3.175953e-05
1.916000 2.763750e-05
1.919000 2.322192e-05
1.922000 1.856516e-05
1.925000 1.372085e-05
1.928000 8.743351e-06
1.931000 3.687392e-06
1.934000 -1.392400e-06
1.937000 -6.441841e-06
1.940000 -1.140755e-05
1.943000 -1.623724e-05
1.946000 -2.088009e-05
1.949000 -2.528696e-05
1.952000 -2.941074e-05
1.955000 -3.320664e-05
1.958000 -3.663248e-05
1.961000 -3.964898e-05
1.964000 -4.222013e-05
1.967000 -4.431352e-05
1.970000 -4.590067e-05
1.973000 -4.695742e-05
1.976000 -4.746432e-05
1.979000 -4.740694e-05
1.982000 -4.677632e-05
1.985000 -4.556927e-05
1.988000 -4.378872e-05
1.991000 -4.144401e-05
1.994000 -3.855112e-05
1.997000 -3.513284e-05
2.000000 -3.121892e-05
2.003000 -2.684602e-05
2.006000 -2.205771e-05
2.009000 -1.690420e-05
2.012000 -1.144213e-05
2.015000 -5.734083e-06
2.018000 1.519269e-07
2.021000 6.143115e-06
2.024000 1.216272e-05
2.027000 1.813089e-05
2.030000 2.396572e-05
2.033000 2.958431e-05
2.036000 3.490398e-05
2.039000 3.984351e-05
2.042000 4.432444e-05
2.045000 4.827234e-05
2.048000 5.161819e-05
2.051000 5.429961e-05
2.054000 5.626212e-05
2.057000 5.746028e-05
2.060000 5.785878e-05
2.063000 5.743332e-05
2.066000 5.617139e-05
2.069000 5.407291e-05
2.072000 5.115060e-05
2.075000 4.743021e-05
2.078000 4.295050e-05
2.081000 3.776299e-05
2.084000 3.193151e-05
2.087000 2.553152e-05
2.090000 1.864915e-05
2.093000 1.138009e-05
2.096000 3.828279e-06
2.099000 -3.895631e-06
2.102000 -1.167593e-05
2.105000 -1.939366e-05
2.108000 -2.692850e-05
2.111000 -3.416073e-05
2.114000 -4.097325e-05
2.117000 -4.725360e-05
2.120000 -5.289586e-05
2.123000 -5.780261e-05
2.126000 -6.188667e-05
2.129000 -6.507274e-05
2.132000 -6.729887e-05
2.135000 -6.851770e-05
2.138000 -6.869746e-05
2.141000 -6.782279e-05
2.144000 -6.589516e-05
2.147000 -6.293311e-05
2.150000 -5.897218e-05
2.153000 -5.406447e-05
2.156000 -4.827802e-05
2.159000 -4.169581e-05
2.162000 -3.441456e-05
2.165000 -2.654323e-05
2.168000 -1.820135e-05
2.171000 -9.517053e-06
2.174000 -6.250927e-07
2.177000 8.335413e-06
2.180000 1.722324e-05
2.183000 2.589741e-05
2.186000 3.421951e-05
2.189000 4.205604e-05
2.192000 4.928064e-05
2.195000 5.577620e-05
2.198000 6.143690e-05
2.201000 6.616991e-05
2.204000 6.989705e-05
2.207000 7.255607e-05
2.210000 7.410175e-05
2.213000 7.450663e-05
2.216000 7.376153e-05
2.219000 7.187567e-05
2.222000 6.887657e-05
2.225000 6.480955e-05
2.228000 5.973704e-05
2.231000 5.373749e-05
2.234000 4.690409e-05
2.237000 3.934321e-05
2.240000 3.117270e-05
2.243000 2.251988e-05
2.246000 1.351948e-05
2.249000 4.311452e-06
2.252000 -4.961318e-06
2.255000 -1.415531e-05
2.258000 -2.312869e-05
2.261000 -3.174355e-05
2.264000 -3.986808e-05
2.267000 -4.737866e-05
2.270000 -5.416174e-05
2.273000 -6.011561e-05
2.276000 -6.515187e-05
2.279000 -6.919676e-05
2.282000 -7.219222e-05
2.285000 -7.409661e-05
2.288000 -7.488531e-05
2.291000 -7.455090e-05
2.294000 -7.310314e-05
2.297000 -7.056866e-05
2.300000 -6.699040e-05
2.303000 -6.242677e-05
2.306000 -5.695065e-05
2.309000 -5.064810e-05
2.312000 -4.361691e-05
2.315000 -3.596504e-05
2.318000 -2.780884e-05
2.321000 -1.927124e-05
2.324000 -1.047988e-05
2.327000 -1.565061e-06
2.330000 7.342098e-06
2.333000 1.611167e-05
2.336000 2.461679e-05
2.339000 3.273547e-05
2.342000 4.035229e-05
2.345000 4.736003e-05
2.348000 5.366107e-05
2.351000 5.916871e-05
2.354000 6.380825e-05
2.357000 6.751789e-05
2.360000 7.024951e-05
2.363000 7.196913e-05
2.366000 7.265724e-05
2.369000 7.230891e-05
2.372000 7.093371e-05
2.375000 6.855541e-05
2.378000 6.521149e-05
2.381000 6.095252e-05
2.384000 5.584133e-05
2.387000 4.995208e-05
2.390000 4.336910e-05
2.393000 3.618576e-05
2.396000 2.850308e-05
2.399000 2.042840e-05
2.402000 1.207391e-05
2.405000 3.555103e-06
2.408000 -5.010669e-06
2.411000 -1.350579e-05
2.414000 -2.181388e-05
2.417000 -2.982128e-05
2.420000 -3.741852e-05
2.423000 -4.450171e-05
2.426000 -5.097384e-05
2.429000 -5.674601e-05
2.432000 -6.173858e-05
2.435000 -6.588217e-05
2.438000 -6.911853e-05
2.441000 -7.140133e-05
2.444000 -7.269678e-05
2.447000 -7.298406e-05
2.450000 -7.225566e-05
2.453000 -7.051756e-05
2.456000 -6.778917e-05
2.459000 -6.410323e-05
2.462000 -5.950544e-05
2.465000 -5.405397e-05
2.468000 -4.781884e-05
2.471000 -4.088110e-05
2.474000 -3.333188e-05
2.477000 -2.527134e-05
2.480000 -1.680742e-05
2.483000 -8.054530e-06
2.486000 8.679032e-07
2.489000 9.836926e-06
2.492000 1.872768e-05
2.495000 2.741502e-05
2.498000 3.577525e-05
2.501000 4.368776e-05
2.504000 5.103674e-05
2.507000 5.771287e-05
2.510000 6.361488e-05
2.513000 6.865109e-05
2.516000 7.274089e-05
2.519000 7.581599e-05
2.522000 7.782164e-05
2.525000 7.871758e-05
2.528000 7.847894e-05
2.531000 7.709677e-05
2.534000 7.457855e-05
2.537000 7.094827e-05
2.540000 6.624646e-05
2.543000 6.052984e-05
2.546000 5.387081e-05
2.549000 4.635664e-05
2.552000 3.808844e-05
2.555000 2.917996e-05
2.558000 1.975604e-05
2.561000 9.950998e-06
2.564000 -9.325780e-08
2.567000 -1.022922e-05
2.570000 -2.030593e-05
2.573000 -3.017120e-05
2.576000 -3.967394e-05
2.579000 -4.866649e-05
2.582000 -5.700690e-05
2.585000 -6.456129e-05
2.588000 -7.120600e-05
2.591000 -7.682972e-05
2.594000 -8.133536e-05
2.597000 -8.464186e-05
