-0.400000 -2.420177e-02
-0.397000 -2.722635e-02
-0.394000 -2.992652e-02
-0.391000 -3.229800e-02
-0.388000 -3.433922e-02
-0.385000 -3.605124e-02
-0.382000 -3.743772e-02
-0.379000 -3.850482e-02
-0.376000 -3.926110e-02
-0.373000 -3.971736e-02
-0.370000 -3.988651e-02
-0.367000 -3.978340e-02
-0.364000 -3.942461e-02
-0.361000 -3.882826e-02
-0.358000 -3.801381e-02
-0.355000 -3.700179e-02
-0.352000 -3.581363e-02
-0.349000 -3.447136e-02
-0.346000 -3.299742e-02
-0.343000 -3.141439e-02
-0.340000 -2.974480e-02
-0.337000 -2.801085e-02
-0.334000 -2.623422e-02
-0.331000 -2.443586e-02
-0.328000 -2.263580e-02
-0.325000 -2.085295e-02
-0.322000 -1.910499e-02
-0.319000 -1.740815e-02
-0.316000 -1.577716e-02
-0.313000 -1.422510e-02
-0.310000 -1.276335e-02
-0.307000 -1.140151e-02
-0.304000 -1.014739e-02
-0.301000 -9.006986e-03
-0.298000 -7.984473e-03
-0.295000 -7.082270e-03
-0.292000 -6.301072e-03
-0.289000 -5.639930e-03
-0.286000 -5.096341e-03
-0.283000 -4.666351e-03
-0.280000 -4.344685e-03
-0.277000 -4.124876e-03
-0.274000 -3.999416e-03
-0.271000 -3.959906e-03
-0.268000 -3.997220e-03
-0.265000 -4.101671e-03
-0.262000 -4.263174e-03
-0.259000 -4.471414e-03
-0.256000 -4.716011e-03
-0.253000 -4.986673e-03
-0.250000 -5.273353e-03
-0.247000 -5.566383e-03
-0.244000 -5.856614e-03
-0.241000 -6.135524e-03
-0.238000 -6.395330e-03
-0.235000 -6.629072e-03
-0.232000 -6.830692e-03
-0.229000 -6.995084e-03
-0.226000 -7.118139e-03
-0.223000 -7.196765e-03
-0.220000 -7.228893e-03
-0.217000 -7.213468e-03
-0.214000 -7.150420e-03
-0.211000 -7.040621e-03
-0.208000 -6.885835e-03
-0.205000 -6.688642e-03
-0.202000 -6.452363e-03
-0.199000 -6.180969e-03
-0.196000 -5.878983e-03
-0.193000 -5.551379e-03
-0.190000 -5.203472e-03
-0.187000 -4.840809e-03
-0.184000 -4.469060e-03
-0.181000 -4.093906e-03
-0.178000 -3.720939e-03
-0.175000 -3.355557e-03
-0.172000 -3.002872e-03
-0.169000 -2.667626e-03
-0.166000 -2.354113e-03
-0.163000 -2.066116e-03
-0.160000 -1.806849e-03
-0.157000 -1.578919e-03
-0.154000 -1.384291e-03
-0.151000 -1.224279e-03
-0.148000 -1.099533e-03
-0.145000 -1.010052e-03
-0.142000 -9.552041e-04
-0.139000 -9.337532e-04
-0.136000 -9.439050e-04
-0.133000 -9.833552e-04
-0.130000 -1.049349e-03
-0.127000 -1.138745e-03
-0.124000 -1.248091e-03
-0.121000 -1.373690e-03
-0.118000 -1.511687e-03
-0.115000 -1.658141e-03
-0.112000 -1.809103e-03
-0.109000 -1.960693e-03
-0.106000 -2.109171e-03
-0.103000 -2.251004e-03
-0.100000 -2.382927e-03
-0.097000 -2.501995e-03
-0.094000 -2.605635e-03
-0.091000 -2.691677e-03
-0.088000 -2.758388e-03
-0.085000 -2.804489e-03
-0.082000 -2.829165e-03
-0.079000 -2.832068e-03
-0.076000 -2.813306e-03
-0.073000 -2.773427e-03
-0.070000 -2.713396e-03
-0.067000 -2.634556e-03
-0.064000 -2.538599e-03
-0.061000 -2.427509e-03
-0.058000 -2.303525e-03
-0.055000 -2.169078e-03
-0.052000 -2.026742e-03
-0.049000 -1.879177e-03
-0.046000 -1.729071e-03
-0.043000 -1.579085e-03
-0.040000 -1.431803e-03
-0.037000 -1.289677e-03
-0.034000 -1.154988e-03
-0.031000 -1.029801e-03
-0.028000 -9.159287e-04
-0.025000 -8.149065e-04
-0.022000 -7.279671e-04
-0.019000 -6.560253e-04
-0.016000 -5.996695e-04
-0.013000 -5.591594e-04
-0.010000 -5.344305e-04
-0.007000 -5.251057e-04
-0.004000 -5.305123e-04
-0.001000 -5.497044e-04
0.002000 -5.814908e-04
0.005000 -6.244666e-04
0.008000 -6.770485e-04
0.011000 -7.375122e-04
0.014000 -8.040322e-04
0.017000 -8.747225e-04
0.020000 -9.476765e-04
0.023000 -1.021007e-03
0.026000 -1.092885e-03
0.029000 -1.161574e-03
0.032000 -1.225466e-03
0.035000 -1.283105e-03
0.038000 -1.333221e-03
0.041000 -1.374742e-03
0.044000 -1.406816e-03
0.047000 -1.428819e-03
0.050000 -1.440364e-03
0.053000 -1.441299e-03
0.056000 -1.431704e-03
0.059000 -1.411884e-03
0.062000 -1.382351e-03
0.065000 -1.343816e-03
0.068000 -1.297157e-03
0.071000 -1.243405e-03
0.074000 -1.183712e-03
0.077000 -1.119326e-03
0.080000 -1.051558e-03
0.083000 -9.817579e-04
0.086000 -9.112784e-04
0.089000 -8.414505e-04
0.092000 -7.735534e-04
0.095000 -7.087893e-04
0.098000 -6.482593e-04
0.101000 -5.929425e-04
0.104000 -5.436787e-04
0.107000 -5.011535e-04
0.110000 -4.658883e-04
0.113000 -4.382329e-04
0.116000 -4.183634e-04
0.119000 -4.062822e-04
0.122000 -4.018236e-04
0.125000 -4.046614e-04
0.128000 -4.143209e-04
0.131000 -4.301932e-04
0.134000 -4.515523e-04
0.137000 -4.775746e-04
0.140000 -5.073597e-04
0.143000 -5.399525e-04
0.146000 -5.743663e-04
0.149000 -6.096056e-04
0.152000 -6.446887e-04
0.155000 -6.786696e-04
0.158000 -7.106587e-04
0.161000 -7.398408e-04
0.164000 -7.654923e-04
0.167000 -7.869953e-04
0.170000 -8.038485e-04
0.173000 -8.156758e-04
0.176000 -8.222320e-04
0.179000 -8.234045e-04
0.182000 -8.192124e-04
0.185000 -8.098030e-04
0.188000 -7.954441e-04
0.191000 -7.765154e-04
0.194000 -7.534957e-04
0.197000 -7.269493e-04
0.200000 -6.975102e-04
0.203000 -6.658649e-04
0.206000 -6.327345e-04
0.209000 -5.988564e-04
0.212000 -5.649658e-04
0.215000 -5.317781e-04
0.218000 -4.999713e-04
0.221000 -4.701709e-04
0.224000 -4.429352e-04
0.227000 -4.187433e-04
0.230000 -3.979853e-04
0.233000 -3.809546e-04
0.236000 -3.678425e-04
0.239000 -3.587367e-04
0.242000 -3.536208e-04
0.245000 -3.523776e-04
0.248000 -3.547941e-04
0.251000 -3.605699e-04
0.254000 -3.693262e-04
0.257000 -3.806179e-04
0.260000 -3.939464e-04
0.263000 -4.087739e-04
0.266000 -4.245383e-04
0.269000 -4.406686e-04
0.272000 -4.565998e-04
0.275000 -4.717883e-04
0.278000 -4.857252e-04
0.281000 -4.979497e-04
0.284000 -5.080603e-04
0.287000 -5.157241e-04
0.290000 -5.206848e-04
0.293000 -5.227682e-04
0.296000 -5.218850e-04
0.299000 -5.180319e-04
0.302000 -5.112904e-04
0.305000 -5.018226e-04
0.308000 -4.898659e-04
0.311000 -4.757248e-04
0.314000 -4.597617e-04
0.317000 -4.423860e-04
0.320000 -4.240419e-04
0.323000 -4.051956e-04
0.326000 -3.863221e-04
0.329000 -3.678917e-04
0.332000 -3.503571e-04
0.335000 -3.341407e-04
0.338000 -3.196233e-04
0.341000 -3.071338e-04
0.344000 -2.969405e-04
0.347000 -2.892442e-04
0.350000 -2.841729e-04
0.353000 -2.817793e-04
0.356000 -2.820394e-04
0.359000 -2.848543e-04
0.362000 -2.900528e-04
0.365000 -2.973974e-04
0.368000 -3.065909e-04
0.371000 -3.172851e-04
0.374000 -3.290911e-04
0.377000 -3.415900e-04
0.380000 -3.543450e-04
0.383000 -3.669135e-04
0.386000 -3.788596e-04
0.389000 -3.897661e-04
0.392000 -3.992459e-04
0.395000 -4.069530e-04
0.398000 -4.125916e-04
0.401000 -4.159244e-04
0.404000 -4.167788e-04
0.407000 -4.150517e-04
0.410000 -4.107121e-04
0.413000 -4.038017e-04
0.416000 -3.944340e-04
0.419000 -3.827904e-04
0.422000 -3.691160e-04
0.425000 -3.537122e-04
0.428000 -3.369285e-04
0.431000 -3.191532e-04
0.434000 -3.008027e-04
0.437000 -2.823102e-04
0.440000 -2.641139e-04
0.443000 -2.466456e-04
0.446000 -2.303186e-04
0.449000 -2.155170e-04
0.452000 -2.025856e-04
0.455000 -1.918202e-04
0.458000 -1.834607e-04
0.461000 -1.776839e-04
0.464000 -1.745996e-04
0.467000 -1.742476e-04
0.470000 -1.765970e-04
0.473000 -1.815468e-04
0.476000 -1.889289e-04
0.479000 -1.985131e-04
0.482000 -2.100124e-04
0.485000 -2.230917e-04
0.488000 -2.373756e-04
0.491000 -2.524593e-04
0.494000 -2.679184e-04
0.497000 -2.833202e-04
0.500000 -2.982350e-04
0.503000 -3.122471e-04
0.506000 -3.249651e-04
0.509000 -3.360322e-04
0.512000 -3.451347e-04
0.515000 -3.520103e-04
0.518000 -3.564538e-04
0.521000 -3.583225e-04
0.524000 -3.575392e-04
0.527000 -3.540934e-04
0.530000 -3.480419e-04
0.533000 -3.395058e-04
0.536000 -3.286680e-04
0.539000 -3.157673e-04
0.542000 -3.010923e-04
0.545000 -2.849740e-04
0.548000 -2.677766e-04
0.551000 -2.498886e-04
0.554000 -2.317125e-04
0.557000 -2.136551e-04
0.560000 -1.961172e-04
0.563000 -1.794833e-04
0.566000 -1.641132e-04
0.569000 -1.503326e-04
0.572000 -1.384257e-04
0.575000 -1.286288e-04
0.578000 -1.211252e-04
0.581000 -1.160407e-04
0.584000 -1.134421e-04
0.587000 -1.133357e-04
0.590000 -1.156682e-04
0.593000 -1.203286e-04
0.596000 -1.271518e-04
0.599000 -1.359233e-04
0.602000 -1.463851e-04
0.605000 -1.582425e-04
0.608000 -1.711716e-04
0.611000 -1.848280e-04
0.614000 -1.988546e-04
0.617000 -2.128911e-04
0.620000 -2.265822e-04
0.623000 -2.395863e-04
0.626000 -2.515831e-04
0.629000 -2.622811e-04
0.632000 -2.714241e-04
0.635000 -2.787965e-04
0.638000 -2.842279e-04
0.641000 -2.875960e-04
0.644000 -2.888292e-04
0.647000 -2.879070e-04
0.650000 -2.848595e-04
0.653000 -2.797660e-04
0.656000 -2.727522e-04
0.659000 -2.639864e-04
0.662000 -2.536745e-04
0.665000 -2.420548e-04
0.668000 -2.293917e-04
0.671000 -2.159690e-04
0.674000 -2.020828e-04
0.677000 -1.880346e-04
0.680000 -1.741241e-04
0.683000 -1.606423e-04
0.686000 -1.478647e-04
0.689000 -1.360455e-04
0.692000 -1.254122e-04
0.695000 -1.161607e-04
0.698000 -1.084515e-04
0.701000 -1.024067e-04
0.704000 -9.810828e-05
0.707000 -9.559662e-05
0.710000 -9.487087e-05
0.713000 -9.588964e-05
0.716000 -9.857295e-05
0.719000 -1.028049e-04
0.722000 -1.084370e-04
0.725000 -1.152926e-04
0.728000 -1.231714e-04
0.731000 -1.318544e-04
0.734000 -1.411099e-04
0.737000 -1.506986e-04
0.740000 -1.603794e-04
0.743000 -1.699151e-04
0.746000 -1.790779e-04
0.749000 -1.876538e-04
0.752000 -1.954481e-04
0.755000 -2.022885e-04
0.758000 -2.080292e-04
0.761000 -2.125532e-04
0.764000 -2.157744e-04
0.767000 -2.176390e-04
0.770000 -2.181256e-04
0.773000 -2.172451e-04
0.776000 -2.150394e-04
0.779000 -2.115798e-04
0.782000 -2.069644e-04
0.785000 -2.013151e-04
0.788000 -1.947744e-04
0.791000 -1.875010e-04
0.794000 -1.796658e-04
0.797000 -1.714476e-04
0.800000 -1.630287e-04
0.803000 -1.545903e-04
0.806000 -1.463082e-04
0.809000 -1.383487e-04
0.812000 -1.308653e-04
0.815000 -1.239947e-04
0.818000 -1.178548e-04
0.821000 -1.125415e-04
0.824000 -1.081279e-04
0.827000 -1.046626e-04
0.830000 -1.021698e-04
0.833000 -1.006490e-04
0.836000 -1.000761e-04
0.839000 -1.004048e-04
0.842000 -1.015685e-04
0.845000 -1.034825e-04
0.848000 -1.060471e-04
0.851000 -1.091506e-04
0.854000 -1.126724e-04
0.857000 -1.164870e-04
0.860000 -1.204671e-04
0.863000 -1.244869e-04
0.866000 -1.284262e-04
0.869000 -1.321728e-04
0.872000 -1.356254e-04
0.875000 -1.386963e-04
0.878000 -1.413134e-04
0.881000 -1.434212e-04
0.884000 -1.449825e-04
0.887000 -1.459781e-04
0.890000 -1.464074e-04
0.893000 -1.462873e-04
0.896000 -1.456514e-04
0.899000 -1.445483e-04
0.902000 -1.430394e-04
0.905000 -1.411970e-04
0.908000 -1.391012e-04
0.911000 -1.368374e-04
0.914000 -1.344933e-04
0.917000 -1.321559e-04
0.920000 -1.299084e-04
0.923000 -1.278278e-04
0.926000 -1.259820e-04
0.929000 -1.244279e-04
0.932000 -1.232091e-04
0.935000 -1.223550e-04
0.938000 -1.218792e-04
0.941000 -1.217794e-04
0.944000 -1.220373e-04
0.947000 -1.226190e-04
0.950000 -1.234764e-04
0.953000 -1.245483e-04
0.956000 -1.257623e-04
0.959000 -1.270374e-04
0.962000 -1.282867e-04
0.965000 -1.294197e-04
0.968000 -1.303458e-04
0.971000 -1.309771e-04
0.974000 -1.312317e-04
0.977000 -1.310365e-04
0.980000 -1.303299e-04
0.983000 -1.290642e-04
0.986000 -1.272080e-04
0.989000 -1.247475e-04
0.992000 -1.216879e-04
0.995000 -1.180541e-04
0.998000 -1.138905e-04
1.001000 -1.092607e-04
1.004000 -1.042467e-04
1.007000 -9.894683e-05
1.010000 -9.347380e-05
1.013000 -8.795218e-05
1.016000 -8.251529e-05
1.019000 -7.730183e-05
1.022000 -7.245225e-05
1.025000 -6.810496e-05
1.028000 -6.439248e-05
1.031000 -6.143760e-05
1.034000 -5.934969e-05
1.037000 -5.822126e-05
1.040000 -5.812484e-05
1.043000 -5.911030e-05
1.046000 -6.120270e-05
1.049000 -6.440065e-05
1.052000 -6.867537e-05
1.055000 -7.397038e-05
1.058000 -8.020195e-05
1.061000 -8.726016e-05
1.064000 -9.501071e-05
1.067000 -1.032974e-04
1.070000 -1.119452e-04
1.073000 -1.207638e-04
1.076000 -1.295519e-04
1.079000 -1.381016e-04
1.082000 -1.462029e-04
1.085000 -1.536493e-04
1.088000 -1.602420e-04
1.091000 -1.657955e-04
1.094000 -1.701417e-04
1.097000 -1.731351e-04
1.100000 -1.746560e-04
1.103000 -1.746145e-04
1.106000 -1.729534e-04
1.109000 -1.696498e-04
1.112000 -1.647172e-04
1.115000 -1.582056e-04
1.118000 -1.502016e-04
1.121000 -1.408270e-04
1.124000 -1.302370e-04
1.127000 -1.186177e-04
1.130000 -1.061820e-04
1.133000 -9.316607e-05
1.136000 -7.982422e-05
1.139000 -6.642362e-05
1.142000 -5.323873e-05
1.145000 -4.054532e-05
1.148000 -2.861440e-05
1.151000 -1.770617e-05
1.154000 -8.064102e-06
1.157000 9.067292e-08
1.160000 6.564613e-06
1.163000 1.119643e-05
1.166000 1.386112e-05
1.169000 1.447325e-05
1.172000 1.298943e-05
1.175000 9.409828e-06
1.178000 3.778804e-06
1.181000 -3.815440e-06
1.184000 -1.324220e-05
1.187000 -2.433053e-05
1.190000 -3.687248e-05
1.193000 -5.062707e-05
1.196000 -6.532517e-05
1.199000 -8.067497e-05
1.202000 -9.636802e-05
1.205000 -1.120858e-04
1.208000 -1.275063e-04
1.211000 -1.423113e-04
1.214000 -1.561930e-04
1.217000 -1.688611e-04
1.220000 -1.800494e-04
1.223000 -1.895213e-04
1.226000 -1.970764e-04
1.229000 -2.025545e-04
1.232000 -2.058403e-04
1.235000 -2.068664e-04
1.238000 -2.056159e-04
1.241000 -2.021237e-04
1.244000 -1.964769e-04
1.247000 -1.888145e-04
1.250000 -1.793254e-04
1.253000 -1.682468e-04
1.256000 -1.558602e-04
1.259000 -1.424880e-04
1.262000 -1.284884e-04
1.265000 -1.142507e-04
1.268000 -1.001894e-04
1.271000 -8.673875e-05
1.274000 -7.434687e-05
1.277000 -6.346984e-05
1.280000 -5.456636e-05
1.283000 -4.809262e-05
1.286000 -4.449773e-05
1.289000 -4.421986e-05
1.292000 -4.768321e-05
1.295000 -5.529588e-05
1.298000 -6.744874e-05
1.301000 -8.451544e-05
1.304000 -1.068535e-04
1.307000 -1.348066e-04
1.310000 -1.687079e-04
1.313000 -2.088848e-04
1.316000 -2.556640e-04
1.319000 -3.093787e-04
1.322000 -3.703756e-04
1.325000 -4.390231e-04
1.328000 -5.157199e-04
1.331000 -6.009044e-04
1.334000 -6.950637e-04
1.337000 -7.987429e-04
1.340000 -9.125540e-04
1.343000 -1.037185e-03
1.346000 -1.173407e-03
1.349000 -1.322081e-03
1.352000 -1.484164e-03
1.355000 -1.660715e-03
1.358000 -1.852894e-03
1.361000 -2.061966e-03
1.364000 -2.289296e-03
1.367000 -2.536350e-03
1.370000 -2.804688e-03
1.373000 -3.095954e-03
1.376000 -3.411866e-03
1.379000 -3.754201e-03
1.382000 -4.124784e-03
1.385000 -4.525463e-03
1.388000 -4.958090e-03
1.391000 -5.424498e-03
1.394000 -5.926474e-03
1.397000 -6.465729e-03
1.400000 -7.043868e-03
1.403000 -7.662357e-03
1.406000 -8.322490e-03
1.409000 -9.025350e-03
1.412000 -9.771777e-03
1.415000 -1.056233e-02
1.418000 -1.139724e-02
1.421000 -1.227638e-02
1.424000 -1.319925e-02
1.427000 -1.416490e-02
1.430000 -1.517193e-02
1.433000 -1.621843e-02
1.436000 -1.730199e-02
1.439000 -1.841964e-02
1.442000 -1.956784e-02
1.445000 -2.074248e-02
1.448000 -2.193884e-02
1.451000 -2.315160e-02
1.454000 -2.437485e-02
1.457000 -2.560207e-02
1.460000 -2.682617e-02
1.463000 -2.803947e-02
1.466000 -2.923379e-02
1.469000 -3.040043e-02
1.472000 -3.153022e-02
1.475000 -3.261362e-02
1.478000 -3.364070e-02
1.481000 -3.460127e-02
1.484000 -3.548494e-02
1.487000 -3.628116e-02
1.490000 -3.697936e-02
1.493000 -3.756901e-02
1.496000 -3.803973e-02
1.499000 -3.838139e-02
1.502000 -3.858421e-02
1.505000 -3.863887e-02
1.508000 -3.853663e-02
1.511000 -3.826941e-02
1.514000 -3.782994e-02
1.517000 -3.721182e-02
1.520000 -3.640966e-02
1.523000 -3.541914e-02
1.526000 -3.423713e-02
1.529000 -3.286175e-02
1.532000 -3.129246e-02
1.535000 -2.953009e-02
1.538000 -2.757694e-02
1.541000 -2.543677e-02
1.544000 -2.311482e-02
1.547000 -2.061787e-02
1.550000 -1.795417e-02
1.553000 -1.513348e-02
1.556000 -1.216696e-02
1.559000 -9.067175e-03
1.562000 -5.847996e-03
1.565000 -2.524518e-03
1.568000 8.870392e-04
1.571000 4.369446e-03
1.574000 7.904593e-03
1.577000 1.147363e-02
1.580000 1.505712e-02
1.583000 1.863519e-02
1.586000 2.218771e-02
1.589000 2.569445e-02
1.592000 2.913526e-02
1.595000 3.249028e-02
1.598000 3.574004e-02
1.601000 3.886572e-02
1.604000 4.184924e-02
1.607000 4.467350e-02
1.610000 4.732245e-02
1.613000 4.978130e-02
1.616000 5.203661e-02
1.619000 5.407641e-02
1.622000 5.589034e-02
1.625000 5.746965e-02
1.628000 5.880737e-02
1.631000 5.989826e-02
1.634000 6.073892e-02
1.637000 6.132775e-02
1.640000 6.166496e-02
1.643000 6.175255e-02
1.646000 6.159425e-02
1.649000 6.119548e-02
1.652000 6.056326e-02
1.655000 5.970610e-02
1.658000 5.863395e-02
1.661000 5.735802e-02
1.664000 5.589069e-02
1.667000 5.424537e-02
1.670000 5.243634e-02
1.673000 5.047862e-02
1.676000 4.838781e-02
1.679000 4.617993e-02
1.682000 4.387129e-02
1.685000 4.147830e-02
1.688000 3.901738e-02
1.691000 3.650478e-02
1.694000 3.395645e-02
1.697000 3.138791e-02
1.700000 2.881417e-02
1.703000 2.624958e-02
1.706000 2.370777e-02
1.709000 2.120152e-02
1.712000 1.874276e-02
1.715000 1.634245e-02
1.718000 1.401054e-02
1.721000 1.175600e-02
1.724000 9.586701e-03
1.727000 7.509487e-03
1.730000 5.530136e-03
1.733000 3.653383e-03
1.736000 1.882939e-03
1.739000 2.215297e-04
1.742000 -1.329074e-03
1.745000 -2.768003e-03
1.748000 -4.095241e-03
1.751000 -5.311561e-03
1.754000 -6.418469e-03
1.757000 -7.418136e-03
1.760000 -8.313327e-03
1.763000 -9.107336e-03
1.766000 -9.803915e-03
1.769000 -1.040721e-02
1.772000 -1.092167e-02
1.775000 -1.135202e-02
1.778000 -1.170317e-02
1.781000 -1.198015e-02
1.784000 -1.218809e-02
1.787000 -1.233212e-02
1.790000 -1.241734e-02
1.793000 -1.244881e-02
1.796000 -1.243146e-02
1.799000 -1.237007e-02
1.802000 -1.226927e-02
1.805000 -1.213347e-02
1.808000 -1.196689e-02
1.811000 -1.177350e-02
1.814000 -1.155703e-02
1.817000 -1.132095e-02
1.820000 -1.106849e-02
1.823000 -1.080263e-02
1.826000 -1.052608e-02
1.829000 -1.024132e-02
1.832000 -9.950576e-03
1.835000 -9.655863e-03
1.838000 -9.358968e-03
1.841000 -9.061480e-03
1.844000 -8.764794e-03
1.847000 -8.470132e-03
1.850000 -8.178555e-03
1.853000 -7.890978e-03
1.856000 -7.608182e-03
1.859000 -7.330834e-03
1.862000 -7.059496e-03
1.865000 -6.794637e-03
1.868000 -6.536650e-03
1.871000 -6.285857e-03
1.874000 -6.042522e-03
1.877000 -5.806858e-03
1.880000 -5.579035e-03
1.883000 -5.359187e-03
1.886000 -5.147416e-03
1.889000 -4.943794e-03
1.892000 -4.748371e-03
1.895000 -4.561173e-03
1.898000 -4.382203e-03
1.901000 -4.211445e-03
1.904000 -4.048861e-03
1.907000 -3.894390e-03
1.910000 -3.747951e-03
1.913000 -3.609437e-03
1.916000 -3.478717e-03
1.919000 -3.355636e-03
1.922000 -3.240009e-03
1.925000 -3.131626e-03
1.928000 -3.030247e-03
1.931000 -2.935607e-03
1.934000 -2.847411e-03
1.937000 -2.765338e-03
1.940000 -2.689043e-03
1.943000 -2.618158e-03
1.946000 -2.552293e-03
1.949000 -2.491043e-03
1.952000 -2.433988e-03
1.955000 -2.380698e-03
1.958000 -2.330738e-03
1.961000 -2.283673e-03
1.964000 -2.239070e-03
1.967000 -2.196507e-03
1.970000 -2.155574e-03
1.973000 -2.115880e-03
1.976000 -2.077061e-03
1.979000 -2.038775e-03
1.982000 -2.000718e-03
1.985000 -1.962617e-03
1.988000 -1.924240e-03
1.991000 -1.885398e-03
1.994000 -1.845943e-03
1.997000 -1.805773e-03
2.000000 -1.764829e-03
2.003000 -1.723101e-03
2.006000 -1.680619e-03
2.009000 -1.637458e-03
2.012000 -1.593733e-03
2.015000 -1.549593e-03
2.018000 -1.505225e-03
2.021000 -1.460842e-03
2.024000 -1.416682e-03
2.027000 -1.373004e-03
2.030000 -1.330079e-03
2.033000 -1.288190e-03
2.036000 -1.247621e-03
2.039000 -1.208655e-03
2.042000 -1.171569e-03
2.045000 -1.136624e-03
2.048000 -1.104068e-03
2.051000 -1.074126e-03
2.054000 -1.046998e-03
2.057000 -1.022856e-03
2.060000 -1.001845e-03
2.063000 -9.840742e-04
2.066000 -9.696233e-04
2.069000 -9.585390e-04
2.072000 -9.508374e-04
2.075000 -9.465049e-04
2.078000 -9.455020e-04
2.081000 -9.477661e-04
2.084000 -9.532159e-04
2.087000 -9.617567e-04
2.090000 -9.732862e-04
2.093000 -9.877001e-04
2.096000 -1.004900e-03
2.099000 -1.024798e-03
2.102000 -1.047328e-03
2.105000 -1.072450e-03
2.108000 -1.100159e-03
2.111000 -1.130492e-03
2.114000 -1.163535e-03
2.117000 -1.199433e-03
2.120000 -1.238392e-03
2.123000 -1.280688e-03
2.126000 -1.326673e-03
2.129000 -1.376777e-03
2.132000 -1.431517e-03
2.135000 -1.491495e-03
2.138000 -1.557405e-03
2.141000 -1.630031e-03
2.144000 -1.710250e-03
2.147000 -1.799032e-03
2.150000 -1.897438e-03
2.153000 -2.006617e-03
2.156000 -2.127804e-03
2.159000 -2.262319e-03
2.162000 -2.411556e-03
2.165000 -2.576983e-03
2.168000 -2.760135e-03
2.171000 -2.962604e-03
2.174000 -3.186035e-03
2.177000 -3.432114e-03
2.180000 -3.702563e-03
2.183000 -3.999131e-03
2.186000 -4.323578e-03
2.189000 -4.677675e-03
2.192000 -5.063182e-03
2.195000 -5.481847e-03
2.198000 -5.935388e-03
2.201000 -6.425487e-03
2.204000 -6.953772e-03
2.207000 -7.521808e-03
2.210000 -8.131088e-03
2.213000 -8.783010e-03
2.216000 -9.478876e-03
2.219000 -1.021987e-02
2.222000 -1.100704e-02
2.225000 -1.184130e-02
2.228000 -1.272339e-02
2.231000 -1.365390e-02
2.234000 -1.463320e-02
2.237000 -1.566147e-02
2.240000 -1.673866e-02
2.243000 -1.786449e-02
2.246000 -1.903840e-02
2.249000 -2.025957e-02
2.252000 -2.152688e-02
2.255000 -2.283890e-02
2.258000 -2.419387e-02
2.261000 -2.558967e-02
2.264000 -2.702383e-02
2.267000 -2.849350e-02
2.270000 -2.999542e-02
2.273000 -3.152591e-02
2.276000 -3.308088e-02
2.279000 -3.465579e-02
2.282000 -3.624566e-02
2.285000 -3.784504e-02
2.288000 -3.944802e-02
2.291000 -4.104824e-02
2.294000 -4.263885e-02
2.297000 -4.421256e-02
2.300000 -4.576161e-02
2.303000 -4.727781e-02
2.306000 -4.875253e-02
2.309000 -5.017674e-02
2.312000 -5.154104e-02
2.315000 -5.283567e-02
2.318000 -5.405054e-02
2.321000 -5.517532e-02
2.324000 -5.619943e-02
2.327000 -5.711211e-02
2.330000 -5.790249e-02
2.333000 -5.855963e-02
2.336000 -5.907262e-02
2.339000 -5.943061e-02
2.342000 -5.962291e-02
2.345000 -5.963905e-02
2.348000 -5.946892e-02
2.351000 -5.910276e-02
2.354000 -5.853134e-02
2.357000 -5.774602e-02
2.360000 -5.673879e-02
2.363000 -5.550247e-02
2.366000 -5.403068e-02
2.369000 -5.231804e-02
2.372000 -5.036018e-02
2.375000 -4.815386e-02
2.378000 -4.569705e-02
2.381000 -4.298901e-02
2.384000 -4.003034e-02
2.387000 -3.682306e-02
2.390000 -3.337068e-02
2.393000 -2.967822e-02
2.396000 -2.575225e-02
2.399000 -2.160094e-02
2.402000 -1.723408e-02
2.405000 -1.266304e-02
2.408000 -7.900827e-03
2.411000 -2.962004e-03
2.414000 2.137296e-03
2.417000 7.379438e-03
2.420000 1.274534e-02
2.423000 1.821455e-02
2.426000 2.376532e-02
2.429000 2.937473e-02
2.432000 3.501876e-02
2.435000 4.067249e-02
2.438000 4.631013e-02
2.441000 5.190527e-02
2.444000 5.743099e-02
2.447000 6.286002e-02
2.450000 6.816496e-02
2.453000 7.331840e-02
2.456000 7.829316e-02
2.459000 8.306249e-02
2.462000 8.760019e-02
2.465000 9.188089e-02
2.468000 9.588022e-02
2.471000 9.957495e-02
2.474000 1.029433e-01
2.477000 1.059649e-01
2.480000 1.086213e-01
2.483000 1.108957e-01
2.486000 1.127736e-01
2.489000 1.142425e-01
2.492000 1.152924e-01
2.495000 1.159154e-01
2.498000 1.161063e-01
2.501000 1.158627e-01
2.504000 1.151844e-01
2.507000 1.140741e-01
2.510000 1.125374e-01
2.513000 1.105821e-01
2.516000 1.082190e-01
2.519000 1.054613e-01
2.522000 1.023250e-01
2.525000 9.882821e-02
2.528000 9.499147e-02
2.531000 9.083750e-02
2.534000 8.639100e-02
2.537000 8.167854e-02
2.540000 7.672829e-02
2.543000 7.156988e-02
2.546000 6.623415e-02
2.549000 6.075292e-02
2.552000 5.515872e-02
2.555000 4.948461e-02
2.558000 4.376384e-02
2.561000 3.802965e-02
2.564000 3.231499e-02
2.567000 2.665226e-02
2.570000 2.107305e-02
2.573000 1.560793e-02
2.576000 1.028615e-02
2.579000 5.135497e-03
2.582000 1.820053e-04
2.585000 -4.550193e-03
2.588000 -9.039056e-03
2.591000 -1.326479e-02
2.594000 -1.721000e-02
2.597000 -2.085977e-02
