-0.400000 -4.587676e-04
-0.397000 -4.420782e-04
-0.394000 -4.249038e-04
-0.391000 -4.074164e-04
-0.388000 -3.898032e-04
-0.385000 -3.722628e-04
-0.382000 -3.550009e-04
-0.379000 -3.382267e-04
-0.376000 -3.221482e-04
-0.373000 -3.069673e-04
-0.370000 -2.928761e-04
-0.367000 -2.800522e-04
-0.364000 -2.686545e-04
-0.361000 -2.588196e-04
-0.358000 -2.506585e-04
-0.355000 -2.442533e-04
-0.352000 -2.396555e-04
-0.349000 -2.368834e-04
-0.346000 -2.359219e-04
-0.343000 -2.367213e-04
-0.340000 -2.391982e-04
-0.337000 -2.432362e-04
-0.334000 -2.486878e-04
-0.331000 -2.553765e-04
-0.328000 -2.631001e-04
-0.325000 -2.716344e-04
-0.322000 -2.807369e-04
-0.319000 -2.901515e-04
-0.316000 -2.996135e-04
-0.313000 -3.088547e-04
-0.310000 -3.176081e-04
-0.307000 -3.256141e-04
-0.304000 -3.326247e-04
-0.301000 -3.384090e-04
-0.298000 -3.427578e-04
-0.295000 -3.454875e-04
-0.292000 -3.464443e-04
-0.289000 -3.455069e-04
-0.286000 -3.425891e-04
-0.283000 -3.376418e-04
-0.280000 -3.306535e-04
-0.277000 -3.216507e-04
-0.274000 -3.106972e-04
-0.271000 -2.978928e-04
-0.268000 -2.833704e-04
-0.265000 -2.672938e-04
-0.262000 -2.498530e-04
-0.259000 -2.312604e-04
-0.256000 -2.117456e-04
-0.253000 -1.915497e-04
-0.250000 -1.709196e-04
-0.247000 -1.501017e-04
-0.244000 -1.293357e-04
-0.241000 -1.088476e-04
-0.238000 -8.884421e-05
-0.235000 -6.950609e-05
-0.232000 -5.098217e-05
-0.229000 -3.338395e-05
-0.226000 -1.678051e-05
-0.223000 -1.194007e-06
-0.220000 1.340424e-05
-0.217000 2.709687e-05
-0.214000 4.002294e-05
-0.211000 5.237959e-05
-0.208000 6.442293e-05
-0.205000 7.646815e-05
-0.202000 8.888885e-05
-0.199000 1.021157e-04
-0.196000 1.166345e-04
-0.193000 1.329834e-04
-0.190000 1.517497e-04
-0.187000 1.735665e-04
-0.184000 1.991084e-04
-0.181000 2.290878e-04
-0.178000 2.642501e-04
-0.175000 3.053694e-04
-0.172000 3.532445e-04
-0.169000 4.086945e-04
-0.166000 4.725548e-04
-0.163000 5.456739e-04
-0.160000 6.289102e-04
-0.157000 7.231290e-04
-0.154000 8.292009e-04
-0.151000 9.479997e-04
-0.148000 1.080402e-03
-0.145000 1.227286e-03
-0.142000 1.389531e-03
-0.139000 1.568022e-03
-0.136000 1.763644e-03
-0.133000 1.977289e-03
-0.130000 2.209854e-03
-0.127000 2.462248e-03
-0.124000 2.735385e-03
-0.121000 3.030194e-03
-0.118000 3.347617e-03
-0.115000 3.688611e-03
-0.112000 4.054145e-03
-0.109000 4.445208e-03
-0.106000 4.862799e-03
-0.103000 5.307932e-03
-0.100000 5.781628e-03
-0.097000 6.284917e-03
-0.094000 6.818827e-03
-0.091000 7.384379e-03
-0.088000 7.982583e-03
-0.085000 8.614421e-03
-0.082000 9.280842e-03
-0.079000 9.982748e-03
-0.076000 1.072098e-02
-0.073000 1.149630e-02
-0.070000 1.230937e-02
-0.067000 1.316076e-02
-0.064000 1.405089e-02
-0.061000 1.498003e-02
-0.058000 1.594830e-02
-0.055000 1.695560e-02
-0.052000 1.800163e-02
-0.049000 1.908585e-02
-0.046000 2.020746e-02
-0.043000 2.136538e-02
-0.040000 2.255823e-02
-0.037000 2.378431e-02
-0.034000 2.504158e-02
-0.031000 2.632764e-02
-0.028000 2.763972e-02
-0.025000 2.897465e-02
-0.022000 3.032888e-02
-0.019000 3.169844e-02
-0.016000 3.307895e-02
-0.013000 3.446561e-02
-0.010000 3.585320e-02
-0.007000 3.723610e-02
-0.004000 3.860825e-02
-0.001000 3.996322e-02
0.002000 4.129417e-02
0.005000 4.259393e-02
0.008000 4.385493e-02
0.011000 4.506932e-02
0.014000 4.622894e-02
0.017000 4.732537e-02
0.020000 4.834998e-02
0.023000 4.929394e-02
0.026000 5.014829e-02
0.029000 5.090398e-02
0.032000 5.155192e-02
0.035000 5.208301e-02
0.038000 5.248826e-02
0.041000 5.275879e-02
0.044000 5.288589e-02
0.047000 5.286114e-02
0.050000 5.267641e-02
0.053000 5.232398e-02
0.056000 5.179654e-02
0.059000 5.108735e-02
0.062000 5.019022e-02
0.065000 4.909963e-02
0.068000 4.781077e-02
0.071000 4.631962e-02
0.074000 4.462300e-02
0.077000 4.271862e-02
0.080000 4.060519e-02
0.083000 3.828239e-02
0.086000 3.575098e-02
0.089000 3.301285e-02
0.092000 3.007098e-02
0.095000 2.692958e-02
0.098000 2.359404e-02
0.101000 2.007095e-02
0.104000 1.636819e-02
0.107000 1.249482e-02
0.110000 8.461167e-03
0.113000 4.278781e-03
0.116000 -3.959493e-05
0.119000 -4.480046e-03
0.122000 -9.027524e-03
0.125000 -1.366590e-02
0.128000 -1.837801e-02
0.131000 -2.314576e-02
0.134000 -2.795014e-02
0.137000 -3.277137e-02
0.140000 -3.758898e-02
0.143000 -4.238188e-02
0.146000 -4.712851e-02
0.149000 -5.180696e-02
0.152000 -5.639506e-02
0.155000 -6.087056e-02
0.158000 -6.521122e-02
0.161000 -6.939499e-02
0.164000 -7.340015e-02
0.167000 -7.720544e-02
0.170000 -8.079022e-02
0.173000 -8.413464e-02
0.176000 -8.721973e-02
0.179000 -9.002764e-02
0.182000 -9.254170e-02
0.185000 -9.474660e-02
0.188000 -9.662850e-02
0.191000 -9.817519e-02
0.194000 -9.937616e-02
0.197000 -1.002227e-01
0.200000 -1.007082e-01
0.203000 -1.008278e-01
0.206000 -1.005788e-01
0.209000 -9.996082e-02
0.212000 -9.897538e-02
0.215000 -9.762635e-02
0.218000 -9.591974e-02
0.221000 -9.386379e-02
0.224000 -9.146886e-02
0.227000 -8.874745e-02
0.230000 -8.571412e-02
0.233000 -8.238536e-02
0.236000 -7.877959e-02
0.239000 -7.491693e-02
0.242000 -7.081919e-02
0.245000 -6.650962e-02
0.248000 -6.201282e-02
0.251000 -5.735454e-02
0.254000 -5.256148e-02
0.257000 -4.766116e-02
0.260000 -4.268164e-02
0.263000 -3.765137e-02
0.266000 -3.259897e-02
0.269000 -2.755297e-02
0.272000 -2.254165e-02
0.275000 -1.759281e-02
0.278000 -1.273351e-02
0.281000 -7.989959e-03
0.284000 -3.387214e-03
0.287000 1.050942e-03
0.290000 5.302210e-03
0.293000 9.345934e-03
0.296000 1.316325e-02
0.299000 1.673725e-02
0.302000 2.005304e-02
0.305000 2.309792e-02
0.308000 2.586141e-02
0.311000 2.833532e-02
0.314000 3.051382e-02
0.317000 3.239342e-02
0.320000 3.397300e-02
0.323000 3.525377e-02
0.326000 3.623920e-02
0.329000 3.693503e-02
0.332000 3.734908e-02
0.335000 3.749123e-02
0.338000 3.737326e-02
0.341000 3.700869e-02
0.344000 3.641267e-02
0.347000 3.560177e-02
0.350000 3.459382e-02
0.353000 3.340769e-02
0.356000 3.206315e-02
0.359000 3.058059e-02
0.362000 2.898086e-02
0.365000 2.728505e-02
0.368000 2.551425e-02
0.371000 2.368939e-02
0.374000 2.183104e-02
0.377000 1.995915e-02
0.380000 1.809294e-02
0.383000 1.625071e-02
0.386000 1.444964e-02
0.389000 1.270572e-02
0.392000 1.103354e-02
0.395000 9.446244e-03
0.398000 7.955424e-03
0.401000 6.571029e-03
0.404000 5.301328e-03
0.407000 4.152879e-03
0.410000 3.130513e-03
0.413000 2.237346e-03
0.416000 1.474806e-03
0.419000 8.426790e-04
0.422000 3.391773e-04
0.425000 -3.898103e-05
0.428000 -2.964734e-04
0.431000 -4.392613e-04
0.434000 -4.744662e-04
0.437000 -4.102346e-04
0.440000 -2.555948e-04
0.443000 -2.030695e-05
0.446000 2.852924e-04
0.449000 6.504471e-04
0.452000 1.064140e-03
0.455000 1.515250e-03
0.458000 1.992703e-03
0.461000 2.485622e-03
0.464000 2.983467e-03
0.467000 3.476167e-03
0.470000 3.954238e-03
0.473000 4.408900e-03
0.476000 4.832164e-03
0.479000 5.216922e-03
0.482000 5.557012e-03
0.485000 5.847272e-03
0.488000 6.083573e-03
0.491000 6.262845e-03
0.494000 6.383081e-03
0.497000 6.443324e-03
0.500000 6.443649e-03
0.503000 6.385115e-03
0.506000 6.269722e-03
0.509000 6.100339e-03
0.512000 5.880633e-03
0.515000 5.614983e-03
0.518000 5.308387e-03
0.521000 4.966362e-03
0.524000 4.594838e-03
0.527000 4.200054e-03
0.530000 3.788441e-03
0.533000 3.366522e-03
0.536000 2.940797e-03
0.539000 2.517640e-03
0.542000 2.103202e-03
0.545000 1.703313e-03
0.548000 1.323400e-03
0.551000 9.684098e-04
0.554000 6.427377e-04
0.557000 3.501745e-04
0.560000 9.385938e-05
0.563000 -1.237541e-04
0.566000 -3.009195e-04
0.569000 -4.366075e-04
0.572000 -5.305037e-04
0.575000 -5.829941e-04
0.578000 -5.951408e-04
0.581000 -5.686453e-04
0.584000 -5.058030e-04
0.587000 -4.094491e-04
0.590000 -2.828955e-04
0.593000 -1.298629e-04
0.596000 4.559455e-05
0.599000 2.391663e-04
0.602000 4.463670e-04
0.605000 6.626175e-04
0.608000 8.833270e-04
0.611000 1.103973e-03
0.614000 1.320176e-03
0.617000 1.527776e-03
0.620000 1.722897e-03
0.623000 1.902006e-03
0.626000 2.061970e-03
0.629000 2.200097e-03
0.632000 2.314176e-03
0.635000 2.402500e-03
0.638000 2.463883e-03
0.641000 2.497673e-03
0.644000 2.503742e-03
0.647000 2.482480e-03
0.650000 2.434771e-03
0.653000 2.361966e-03
0.656000 2.265845e-03
0.659000 2.148574e-03
0.662000 2.012653e-03
0.665000 1.860865e-03
0.668000 1.696212e-03
0.671000 1.521862e-03
0.674000 1.341077e-03
0.677000 1.157155e-03
0.680000 9.733686e-04
0.683000 7.929015e-04
0.686000 6.187934e-04
0.689000 4.538866e-04
0.692000 3.007773e-04
0.695000 1.617737e-04
0.698000 3.886012e-05
0.701000 -6.633260e-05
0.704000 -1.525483e-04
0.707000 -2.189197e-04
0.710000 -2.649750e-04
0.713000 -2.906365e-04
0.716000 -2.962121e-04
0.719000 -2.823797e-04
0.722000 -2.501645e-04
0.725000 -2.009111e-04
0.728000 -1.362491e-04
0.731000 -5.805557e-05
0.734000 3.158793e-05
0.737000 1.304398e-04
0.740000 2.361458e-04
0.743000 3.462866e-04
0.746000 4.584262e-04
0.749000 5.701589e-04
0.752000 6.791551e-04
0.755000 7.832036e-04
0.758000 8.802520e-04
0.761000 9.684415e-04
0.764000 1.046138e-03
0.767000 1.111959e-03
0.770000 1.164792e-03
0.773000 1.203812e-03
0.776000 1.228485e-03
0.779000 1.238579e-03
0.782000 1.234154e-03
0.785000 1.215556e-03
0.788000 1.183403e-03
0.791000 1.138567e-03
0.794000 1.082148e-03
0.797000 1.015450e-03
0.800000 9.399463e-04
0.803000 8.572513e-04
0.806000 7.690810e-04
0.809000 6.772186e-04
0.812000 5.834772e-04
0.815000 4.896632e-04
0.818000 3.975408e-04
0.821000 3.087977e-04
0.824000 2.250135e-04
0.827000 1.476310e-04
0.830000 7.793014e-05
0.833000 1.700691e-05
0.836000 -3.424482e-05
0.839000 -7.514628e-05
0.842000 -1.052426e-04
0.845000 -1.243065e-04
0.848000 -1.323383e-04
0.851000 -1.295602e-04
0.854000 -1.164067e-04
0.857000 -9.351161e-05
0.860000 -6.169032e-05
0.863000 -2.191922e-05
0.866000 2.468766e-05
0.869000 7.690449e-05
0.872000 1.334211e-04
0.875000 1.928717e-04
0.878000 2.538641e-04
0.881000 3.150091e-04
0.884000 3.749487e-04
0.887000 4.323841e-04
0.890000 4.861006e-04
0.893000 5.349917e-04
0.896000 5.780793e-04
0.899000 6.145317e-04
0.902000 6.436778e-04
0.905000 6.650176e-04
0.908000 6.782292e-04
0.911000 6.831718e-04
0.914000 6.798847e-04
0.917000 6.685827e-04
0.920000 6.496478e-04
0.923000 6.236173e-04
0.926000 5.911691e-04
0.929000 5.531043e-04
0.932000 5.103267e-04
0.935000 4.638218e-04
0.938000 4.146328e-04
0.941000 3.638375e-04
0.944000 3.125233e-04
0.947000 2.617634e-04
0.950000 2.125934e-04
0.953000 1.659894e-04
0.956000 1.228474e-04
0.959000 8.396518e-05
0.962000 5.002646e-05
0.965000 2.158820e-05
0.968000 -9.292678e-07
0.971000 -1.724882e-05
0.974000 -2.723970e-05
0.977000 -3.091732e-05
0.980000 -2.843975e-05
0.983000 -2.010102e-05
0.986000 -6.321325e-06
0.989000 1.236534e-05
0.992000 3.532610e-05
0.995000 6.184608e-05
0.998000 9.114690e-05
1.001000 1.224063e-04
1.004000 1.547785e-04
1.007000 1.874146e-04
1.010000 2.194830e-04
1.013000 2.501886e-04
1.016000 2.787912e-04
1.019000 3.046216e-04
1.022000 3.270969e-04
1.025000 3.457320e-04
1.028000 3.601494e-04
1.031000 3.700861e-04
1.034000 3.753974e-04
1.037000 3.760577e-04
1.040000 3.721585e-04
1.043000 3.639036e-04
1.046000 3.516010e-04
1.049000 3.356535e-04
1.052000 3.165459e-04
1.055000 2.948308e-04
1.058000 2.711136e-04
1.061000 2.460350e-04
1.064000 2.202545e-04
1.067000 1.944324e-04
1.070000 1.692131e-04
1.073000 1.452081e-04
1.076000 1.229810e-04
1.079000 1.030340e-04
1.082000 8.579498e-05
1.085000 7.160857e-05
1.088000 6.072810e-05
1.091000 5.331079e-05
1.094000 4.941536e-05
1.097000 4.900232e-05
1.100000 5.193683e-05
1.103000 5.799416e-05
1.106000 6.686736e-05
1.109000 7.817712e-05
1.112000 9.148344e-05
1.115000 1.062987e-04
1.118000 1.221021e-04
1.121000 1.383544e-04
1.124000 1.545134e-04
1.127000 1.700490e-04
1.130000 1.844581e-04
1.133000 1.972782e-04
1.136000 2.081002e-04
1.139000 2.165790e-04
1.142000 2.224430e-04
1.145000 2.255007e-04
1.148000 2.256456e-04
1.151000 2.228583e-04
1.154000 2.172068e-04
1.157000 2.088433e-04
1.160000 1.979998e-04
1.163000 1.849811e-04
1.166000 1.701552e-04
1.169000 1.539429e-04
1.172000 1.368058e-04
1.175000 1.192327e-04
1.178000 1.017255e-04
1.181000 8.478534e-05
1.184000 6.889817e-05
1.187000 5.452089e-05
1.190000 4.206850e-05
1.193000 3.190239e-05
1.196000 2.432004e-05
1.199000 1.954659e-05
1.202000 1.772838e-05
1.205000 1.892870e-05
1.208000 2.312580e-05
1.211000 3.021323e-05
1.214000 4.000259e-05
1.217000 5.222842e-05
1.220000 6.655529e-05
1.223000 8.258674e-05
1.226000 9.987599e-05
1.229000 1.179379e-04
1.232000 1.362622e-04
1.235000 1.543270e-04
1.238000 1.716132e-04
1.241000 1.876186e-04
1.244000 2.018710e-04
1.247000 2.139416e-04
1.250000 2.234567e-04
1.253000 2.301075e-04
1.256000 2.336588e-04
1.259000 2.339557e-04
1.262000 2.309281e-04
1.265000 2.245923e-04
1.268000 2.150517e-04
1.271000 2.024937e-04
1.274000 1.871855e-04
1.277000 1.694670e-04
1.280000 1.497428e-04
1.283000 1.284708e-04
1.286000 1.061516e-04
1.289000 8.331470e-05
1.292000 6.050559e-05
1.295000 3.827131e-05
1.298000 1.714659e-05
1.301000 -2.359891e-06
1.304000 -1.977845e-05
1.307000 -3.469042e-05
1.310000 -4.673875e-05
1.313000 -5.563697e-05
1.316000 -6.117644e-05
1.319000 -6.323140e-05
1.322000 -6.176202e-05
1.325000 -5.681516e-05
1.328000 -4.852293e-05
1.331000 -3.709911e-05
1.334000 -2.283345e-05
1.337000 -6.084080e-06
1.340000 1.273171e-05
1.343000 3.314824e-05
1.346000 5.466328e-05
1.349000 7.675078e-05
1.352000 9.887408e-05
1.355000 1.204993e-04
1.358000 1.411085e-04
1.361000 1.602123e-04
1.364000 1.773620e-04
1.367000 1.921600e-04
1.370000 2.042688e-04
1.373000 2.134194e-04
1.376000 2.194165e-04
1.379000 2.221427e-04
1.382000 2.215604e-04
1.385000 2.177116e-04
1.388000 2.107157e-04
1.391000 2.007656e-04
1.394000 1.881218e-04
1.397000 1.731050e-04
1.400000 1.560869e-04
1.403000 1.374809e-04
1.406000 1.177304e-04
1.409000 9.729799e-05
1.412000 7.665349e-05
1.415000 5.626227e-05
1.418000 3.657395e-05
1.421000 1.801170e-05
1.424000 9.624107e-07
1.427000 -1.423196e-05
1.430000 -2.728178e-05
1.433000 -3.795557e-05
1.436000 -4.608423e-05
1.439000 -5.156363e-05
1.442000 -5.435541e-05
1.445000 -5.448611e-05
1.448000 -5.204469e-05
1.451000 -4.717844e-05
1.454000 -4.008761e-05
1.457000 -3.101874e-05
1.460000 -2.025706e-05
1.463000 -8.118071e-06
1.466000 5.061381e-06
1.469000 1.893228e-05
1.472000 3.314269e-05
1.475000 4.734667e-05
1.478000 6.121288e-05
1.481000 7.443234e-05
1.484000 8.672540e-05
1.487000 9.784771e-05
1.490000 1.075949e-04
1.493000 1.158062e-04
1.496000 1.223665e-04
1.499000 1.272072e-04
1.502000 1.303061e-04
1.505000 1.316852e-04
1.508000 1.314082e-04
1.511000 1.295766e-04
1.514000 1.263250e-04
1.517000 1.218154e-04
1.520000 1.162315e-04
1.523000 1.097722e-04
1.526000 1.026453e-04
1.529000 9.506116e-05
1.532000 8.722628e-05
1.535000 7.933789e-05
1.538000 7.157874e-05
1.541000 6.411265e-05
1.544000 5.708095e-05
1.547000 5.059979e-05
1.550000 4.475834e-05
1.553000 3.961805e-05
1.556000 3.521274e-05
1.559000 3.154968e-05
1.562000 2.861148e-05
1.565000 2.635866e-05
1.568000 2.473290e-05
1.571000 2.366073e-05
1.574000 2.305764e-05
1.577000 2.283223e-05
1.580000 2.289056e-05
1.583000 2.314028e-05
1.586000 2.349453e-05
1.589000 2.387544e-05
1.592000 2.421714e-05
1.595000 2.446820e-05
1.598000 2.459333e-05
1.601000 2.457441e-05
1.604000 2.441081e-05
1.607000 2.411887e-05
1.610000 2.373080e-05
1.613000 2.329284e-05
1.616000 2.286289e-05
1.619000 2.250761e-05
1.622000 2.229920e-05
1.625000 2.231186e-05
1.628000 2.261822e-05
1.631000 2.328570e-05
1.634000 2.437304e-05
1.637000 2.592709e-05
1.640000 2.798004e-05
1.643000 3.054701e-05
1.646000 3.362441e-05
1.649000 3.718873e-05
1.652000 4.119619e-05
1.655000 4.558299e-05
1.658000 5.026635e-05
1.661000 5.514614e-05
1.664000 6.010727e-05
1.667000 6.502248e-05
1.670000 6.975578e-05
1.673000 7.416614e-05
1.676000 7.811147e-05
1.679000 8.145270e-05
1.682000 8.405787e-05
1.685000 8.580610e-05
1.688000 8.659115e-05
1.691000 8.632473e-05
1.694000 8.493918e-05
1.697000 8.238952e-05
1.700000 7.865482e-05
1.703000 7.373880e-05
1.706000 6.766951e-05
1.709000 6.049828e-05
1.712000 5.229770e-05
1.715000 4.315889e-05
1.718000 3.318787e-05
1.721000 2.250130e-05
1.724000 1.122155e-05
1.727000 -5.287518e-07
1.730000 -1.263256e-05
1.733000 -2.498460e-05
1.736000 -3.749766e-05
1.739000 -5.010892e-05
1.742000 -6.278623e-05
1.745000 -7.553407e-05
1.748000 -8.839922e-05
1.751000 -1.014760e-04
1.754000 -1.149107e-04
1.757000 -1.289062e-04
1.760000 -1.437245e-04
1.763000 -1.596901e-04
1.766000 -1.771914e-04
1.769000 -1.966821e-04
1.772000 -2.186819e-04
1.775000 -2.437757e-04
1.778000 -2.726134e-04
1.781000 -3.059081e-04
1.784000 -3.444348e-04
1.787000 -3.890273e-04
1.790000 -4.405765e-04
1.793000 -5.000273e-04
1.796000 -5.683756e-04
1.799000 -6.466652e-04
1.802000 -7.359853e-04
1.805000 -8.374669e-04
1.808000 -9.522800e-04
1.811000 -1.081631e-03
1.814000 -1.226759e-03
1.817000 -1.388934e-03
1.820000 -1.569452e-03
1.823000 -1.769635e-03
1.826000 -1.990822e-03
1.829000 -2.234373e-03
1.832000 -2.501656e-03
1.835000 -2.794047e-03
1.838000 -3.112923e-03
1.841000 -3.459654e-03
1.844000 -3.835592e-03
1.847000 -4.242067e-03
1.850000 -4.680371e-03
1.853000 -5.151744e-03
1.856000 -5.657362e-03
1.859000 -6.198320e-03
1.862000 -6.775608e-03
1.865000 -7.390096e-03
1.868000 -8.042509e-03
1.871000 -8.733400e-03
1.874000 -9.463127e-03
1.877000 -1.023182e-02
1.880000 -1.103937e-02
1.883000 -1.188537e-02
1.886000 -1.276910e-02
1.889000 -1.368950e-02
1.892000 -1.464514e-02
1.895000 -1.563418e-02
1.898000 -1.665436e-02
1.901000 -1.770295e-02
1.904000 -1.877675e-02
1.907000 -1.987206e-02
1.910000 -2.098466e-02
1.913000 -2.210983e-02
1.916000 -2.324228e-02
1.919000 -2.437622e-02
1.922000 -2.550532e-02
1.925000 -2.662277e-02
1.928000 -2.772123e-02
1.931000 -2.879292e-02
1.934000 -2.982963e-02
1.937000 -3.082278e-02
1.940000 -3.176344e-02
1.943000 -3.264243e-02
1.946000 -3.345034e-02
1.949000 -3.417766e-02
1.952000 -3.481480e-02
1.955000 -3.535224e-02
1.958000 -3.578057e-02
1.961000 -3.609061e-02
1.964000 -3.627350e-02
1.967000 -3.632082e-02
1.970000 -3.622469e-02
1.973000 -3.597784e-02
1.976000 -3.557375e-02
1.979000 -3.500676e-02
1.982000 -3.427210e-02
1.985000 -3.336607e-02
1.988000 -3.228602e-02
1.991000 -3.103053e-02
1.994000 -2.959939e-02
1.997000 -2.799369e-02
2.000000 -2.621587e-02
2.003000 -2.426973e-02
2.006000 -2.216046e-02
2.009000 -1.989461e-02
2.012000 -1.748012e-02
2.015000 -1.492627e-02
2.018000 -1.224362e-02
2.021000 -9.443968e-03
2.024000 -6.540285e-03
2.027000 -3.546605e-03
2.030000 -4.779369e-04
2.033000 2.649856e-03
2.036000 5.820176e-03
2.039000 9.015832e-03
2.042000 1.221918e-02
2.045000 1.541227e-02
2.048000 1.857701e-02
2.051000 2.169532e-02
2.054000 2.474930e-02
2.057000 2.772137e-02
2.060000 3.059445e-02
2.063000 3.335209e-02
2.066000 3.597866e-02
2.069000 3.845942e-02
2.072000 4.078072e-02
2.075000 4.293006e-02
2.078000 4.489623e-02
2.081000 4.666940e-02
2.084000 4.824119e-02
2.087000 4.960470e-02
2.090000 5.075463e-02
2.093000 5.168722e-02
2.096000 5.240032e-02
2.099000 5.289339e-02
2.102000 5.316744e-02
2.105000 5.322501e-02
2.108000 5.307012e-02
2.111000 5.270822e-02
2.114000 5.214608e-02
2.117000 5.139175e-02
2.120000 5.045437e-02
2.123000 4.934418e-02
2.126000 4.807229e-02
2.129000 4.665064e-02
2.132000 4.509183e-02
2.135000 4.340900e-02
2.138000 4.161570e-02
2.141000 3.972578e-02
2.144000 3.775322e-02
2.147000 3.571204e-02
2.150000 3.361619e-02
2.153000 3.147938e-02
2.156000 2.931505e-02
2.159000 2.713621e-02
2.162000 2.495536e-02
2.165000 2.278445e-02
2.168000 2.063477e-02
2.171000 1.851689e-02
2.174000 1.644061e-02
2.177000 1.441495e-02
2.180000 1.244807e-02
2.183000 1.054728e-02
2.186000 8.719041e-03
2.189000 6.968911e-03
2.192000 5.301602e-03
2.195000 3.720966e-03
2.198000 2.230028e-03
2.201000 8.310062e-04
2.204000 -4.746506e-04
2.207000 -1.686226e-03
2.210000 -2.803692e-03
2.213000 -3.827665e-03
2.216000 -4.759355e-03
2.219000 -5.600514e-03
2.222000 -6.353384e-03
2.225000 -7.020644e-03
2.228000 -7.605356e-03
2.231000 -8.110912e-03
2.234000 -8.540981e-03
2.237000 -8.899458e-03
2.240000 -9.190417e-03
2.243000 -9.418062e-03
2.246000 -9.586684e-03
2.249000 -9.700617e-03
2.252000 -9.764201e-03
2.255000 -9.781747e-03
2.258000 -9.757501e-03
2.261000 -9.695618e-03
2.264000 -9.600134e-03
2.267000 -9.474941e-03
2.270000 -9.323774e-03
2.273000 -9.150185e-03
2.276000 -8.957538e-03
2.279000 -8.748993e-03
2.282000 -8.527500e-03
2.285000 -8.295794e-03
2.288000 -8.056391e-03
2.291000 -7.811589e-03
2.294000 -7.563470e-03
2.297000 -7.313902e-03
2.300000 -7.064546e-03
2.303000 -6.816862e-03
2.306000 -6.572119e-03
2.309000 -6.331402e-03
2.312000 -6.095625e-03
2.315000 -5.865542e-03
2.318000 -5.641757e-03
2.321000 -5.424738e-03
2.324000 -5.214831e-03
2.327000 -5.012268e-03
2.330000 -4.817184e-03
2.333000 -4.629628e-03
2.336000 -4.449575e-03
2.339000 -4.276934e-03
2.342000 -4.111567e-03
2.345000 -3.953290e-03
2.348000 -3.801889e-03
2.351000 -3.657126e-03
2.354000 -3.518745e-03
2.357000 -3.386483e-03
2.360000 -3.260074e-03
2.363000 -3.139251e-03
2.366000 -3.023755e-03
2.369000 -2.913335e-03
2.372000 -2.807752e-03
2.375000 -2.706780e-03
2.378000 -2.610207e-03
2.381000 -2.517834e-03
2.384000 -2.429478e-03
2.387000 -2.344967e-03
2.390000 -2.264144e-03
2.393000 -2.186861e-03
2.396000 -2.112978e-03
2.399000 -2.042365e-03
2.402000 -1.974897e-03
2.405000 -1.910452e-03
2.408000 -1.848911e-03
2.411000 -1.790157e-03
2.414000 -1.734072e-03
2.417000 -1.680536e-03
2.420000 -1.629428e-03
2.423000 -1.580627e-03
2.426000 -1.534007e-03
2.429000 -1.489441e-03
2.432000 -1.446801e-03
2.435000 -1.405960e-03
2.438000 -1.366790e-03
2.441000 -1.329166e-03
2.444000 -1.292966e-03
2.447000 -1.258072e-03
2.450000 -1.224374e-03
2.453000 -1.191770e-03
2.456000 -1.160167e-03
2.459000 -1.129483e-03
2.462000 -1.099647e-03
2.465000 -1.070602e-03
2.468000 -1.042303e-03
2.471000 -1.014721e-03
2.474000 -9.878382e-04
2.477000 -9.616513e-04
2.480000 -9.361695e-04
2.483000 -9.114136e-04
2.486000 -8.874144e-04
2.489000 -8.642116e-04
2.492000 -8.418510e-04
2.495000 -8.203835e-04
2.498000 -7.998615e-04
2.501000 -7.803376e-04
2.504000 -7.618614e-04
2.507000 -7.444775e-04
2.510000 -7.282226e-04
2.513000 -7.131238e-04
2.516000 -6.991963e-04
2.519000 -6.864414e-04
2.522000 -6.748456e-04
2.525000 -6.643790e-04
2.528000 -6.549948e-04
2.531000 -6.466291e-04
2.534000 -6.392011e-04
2.537000 -6.326136e-04
2.540000 -6.267544e-04
2.543000 -6.214974e-04
2.546000 -6.167053e-04
2.549000 -6.122310e-04
2.552000 -6.079211e-04
2.555000 -6.036187e-04
2.558000 -5.991660e-04
2.561000 -5.944085e-04
2.564000 -5.891975e-04
2.567000 -5.833942e-04
2.570000 -5.768725e-04
2.573000 -5.695222e-04
2.576000 -5.612520e-04
2.579000 -5.519916e-04
2.582000 -5.416944e-04
2.585000 -5.303386e-04
2.588000 -5.179285e-04
2.591000 -5.044953e-04
2.594000 -4.900972e-04
2.597000 -4.748181e-04
