-0.400000 -5.513487e-04
-0.397000 -5.334265e-04
-0.394000 -5.154379e-04
-0.391000 -4.976411e-04
-0.388000 -4.802919e-04
-0.385000 -4.636383e-04
-0.382000 -4.479162e-04
-0.379000 -4.333453e-04
-0.376000 -4.201245e-04
-0.373000 -4.084286e-04
-0.370000 -3.984044e-04
-0.367000 -3.901680e-04
-0.364000 -3.838024e-04
-0.361000 -3.793556e-04
-0.358000 -3.768391e-04
-0.355000 -3.762278e-04
-0.352000 -3.774598e-04
-0.349000 -3.804377e-04
-0.346000 -3.850295e-04
-0.343000 -3.910717e-04
-0.340000 -3.983717e-04
-0.337000 -4.067116e-04
-0.334000 -4.158524e-04
-0.331000 -4.255388e-04
-0.328000 -4.355040e-04
-0.325000 -4.454754e-04
-0.322000 -4.551803e-04
-0.319000 -4.643511e-04
-0.316000 -4.727318e-04
-0.313000 -4.800827e-04
-0.310000 -4.861863e-04
-0.307000 -4.908518e-04
-0.304000 -4.939194e-04
-0.301000 -4.952641e-04
-0.298000 -4.947988e-04
-0.295000 -4.924761e-04
-0.292000 -4.882899e-04
-0.289000 -4.822753e-04
-0.286000 -4.745089e-04
-0.283000 -4.651062e-04
-0.280000 -4.542201e-04
-0.277000 -4.420371e-04
-0.274000 -4.287733e-04
-0.271000 -4.146695e-04
-0.268000 -3.999862e-04
-0.265000 -3.849969e-04
-0.262000 -3.699826e-04
-0.259000 -3.552249e-04
-0.256000 -3.409993e-04
-0.253000 -3.275693e-04
-0.250000 -3.151797e-04
-0.247000 -3.040511e-04
-0.244000 -2.943746e-04
-0.241000 -2.863072e-04
-0.238000 -2.799684e-04
-0.235000 -2.754368e-04
-0.232000 -2.727488e-04
-0.229000 -2.718973e-04
-0.226000 -2.728324e-04
-0.223000 -2.754620e-04
-0.220000 -2.796547e-04
-0.217000 -2.852427e-04
-0.214000 -2.920261e-04
-0.211000 -2.997775e-04
-0.208000 -3.082480e-04
-0.205000 -3.171732e-04
-0.202000 -3.262796e-04
-0.199000 -3.352913e-04
-0.196000 -3.439371e-04
-0.193000 -3.519566e-04
-0.190000 -3.591074e-04
-0.187000 -3.651701e-04
-0.184000 -3.699543e-04
-0.181000 -3.733031e-04
-0.178000 -3.750967e-04
-0.175000 -3.752553e-04
-0.172000 -3.737410e-04
-0.169000 -3.705586e-04
-0.166000 -3.657552e-04
-0.163000 -3.594189e-04
-0.160000 -3.516762e-04
-0.157000 -3.426891e-04
-0.154000 -3.326504e-04
-0.151000 -3.217790e-04
-0.148000 -3.103142e-04
-0.145000 -2.985094e-04
-0.142000 -2.866258e-04
-0.139000 -2.749255e-04
-0.136000 -2.636652e-04
-0.133000 -2.530893e-04
-0.130000 -2.434241e-04
-0.127000 -2.348717e-04
-0.124000 -2.276051e-04
-0.121000 -2.217643e-04
-0.118000 -2.174519e-04
-0.115000 -2.147315e-04
-0.112000 -2.136257e-04
-0.109000 -2.141159e-04
-0.106000 -2.161426e-04
-0.103000 -2.196073e-04
-0.100000 -2.243748e-04
-0.097000 -2.302772e-04
-0.094000 -2.371178e-04
-0.091000 -2.446765e-04
-0.088000 -2.527153e-04
-0.085000 -2.609844e-04
-0.082000 -2.692289e-04
-0.079000 -2.771946e-04
-0.076000 -2.846355e-04
-0.073000 -2.913190e-04
-0.070000 -2.970327e-04
-0.067000 -3.015892e-04
-0.064000 -3.048312e-04
-0.061000 -3.066352e-04
-0.058000 -3.069150e-04
-0.055000 -3.056235e-04
-0.052000 -3.027539e-04
-0.049000 -2.983404e-04
-0.046000 -2.924565e-04
-0.043000 -2.852140e-04
-0.040000 -2.767595e-04
-0.037000 -2.672711e-04
-0.034000 -2.569540e-04
-0.031000 -2.460348e-04
-0.028000 -2.347566e-04
-0.025000 -2.233723e-04
-0.022000 -2.121384e-04
-0.019000 -2.013088e-04
-0.016000 -1.911282e-04
-0.013000 -1.818260e-04
-0.010000 -1.736106e-04
-0.007000 -1.666643e-04
-0.004000 -1.611382e-04
-0.001000 -1.571490e-04
0.002000 -1.547758e-04
0.005000 -1.540580e-04
0.008000 -1.549941e-04
0.011000 -1.575420e-04
0.014000 -1.616196e-04
0.017000 -1.671072e-04
0.020000 -1.738496e-04
0.023000 -1.816607e-04
0.026000 -1.903273e-04
0.029000 -1.996146e-04
0.032000 -2.092719e-04
0.035000 -2.190384e-04
0.038000 -2.286500e-04
0.041000 -2.378451e-04
0.044000 -2.463717e-04
0.047000 -2.539929e-04
0.050000 -2.604931e-04
0.053000 -2.656832e-04
0.056000 -2.694050e-04
0.059000 -2.715354e-04
0.062000 -2.719894e-04
0.065000 -2.707222e-04
0.068000 -2.677303e-04
0.071000 -2.630520e-04
0.074000 -2.567664e-04
0.077000 -2.489913e-04
0.080000 -2.398813e-04
0.083000 -2.296235e-04
0.086000 -2.184332e-04
0.089000 -2.065493e-04
0.092000 -1.942283e-04
0.095000 -1.817382e-04
0.098000 -1.693525e-04
0.101000 -1.573434e-04
0.104000 -1.459755e-04
0.107000 -1.354996e-04
0.110000 -1.261465e-04
0.113000 -1.181217e-04
0.116000 -1.116003e-04
0.119000 -1.067230e-04
0.122000 -1.035925e-04
0.125000 -1.022710e-04
0.128000 -1.027787e-04
0.131000 -1.050931e-04
0.134000 -1.091497e-04
0.137000 -1.148427e-04
0.140000 -1.220280e-04
0.143000 -1.305264e-04
0.146000 -1.401270e-04
0.149000 -1.505931e-04
0.152000 -1.616664e-04
0.155000 -1.730740e-04
0.158000 -1.845340e-04
0.161000 -1.957624e-04
0.164000 -2.064792e-04
0.167000 -2.164154e-04
0.170000 -2.253191e-04
0.173000 -2.329611e-04
0.176000 -2.391406e-04
0.179000 -2.436896e-04
0.182000 -2.464770e-04
0.185000 -2.474120e-04
0.188000 -2.464459e-04
0.191000 -2.435733e-04
0.194000 -2.388330e-04
0.197000 -2.323065e-04
0.200000 -2.241168e-04
0.203000 -2.144253e-04
0.206000 -2.034288e-04
0.209000 -1.913547e-04
0.212000 -1.784559e-04
0.215000 -1.650055e-04
0.218000 -1.512905e-04
0.221000 -1.376052e-04
0.224000 -1.242446e-04
0.227000 -1.114982e-04
0.230000 -9.964256e-05
0.233000 -8.893592e-05
0.236000 -7.961175e-05
0.239000 -7.187362e-05
0.242000 -6.589047e-05
0.245000 -6.179274e-05
0.248000 -5.966924e-05
0.251000 -5.956511e-05
0.254000 -6.148054e-05
0.257000 -6.537071e-05
0.260000 -7.114658e-05
0.263000 -7.867669e-05
0.266000 -8.779000e-05
0.269000 -9.827948e-05
0.272000 -1.099066e-04
0.275000 -1.224066e-04
0.278000 -1.354941e-04
0.281000 -1.488693e-04
0.284000 -1.622248e-04
0.287000 -1.752521e-04
0.290000 -1.876487e-04
0.293000 -1.991243e-04
0.296000 -2.094076e-04
0.299000 -2.182523e-04
0.302000 -2.254424e-04
0.305000 -2.307970e-04
0.308000 -2.341749e-04
0.311000 -2.354770e-04
0.314000 -2.346493e-04
0.317000 -2.316838e-04
0.320000 -2.266193e-04
0.323000 -2.195400e-04
0.326000 -2.105747e-04
0.329000 -1.998933e-04
0.332000 -1.877041e-04
0.335000 -1.742486e-04
0.338000 -1.597971e-04
0.341000 -1.446425e-04
0.344000 -1.290945e-04
0.347000 -1.134726e-04
0.350000 -9.809928e-05
0.353000 -8.329352e-05
0.356000 -6.936355e-05
0.359000 -5.660039e-05
0.362000 -4.527156e-05
0.365000 -3.561531e-05
0.368000 -2.783546e-05
0.371000 -2.209694e-05
0.374000 -1.852219e-05
0.377000 -1.718846e-05
0.380000 -1.812600e-05
0.383000 -2.131734e-05
0.386000 -2.669748e-05
0.389000 -3.415517e-05
0.392000 -4.353511e-05
0.395000 -5.464111e-05
0.398000 -6.724011e-05
0.401000 -8.106700e-05
0.404000 -9.583005e-05
0.407000 -1.112170e-04
0.410000 -1.269016e-04
0.413000 -1.425502e-04
0.416000 -1.578288e-04
0.419000 -1.724103e-04
0.422000 -1.859807e-04
0.425000 -1.982461e-04
0.428000 -2.089388e-04
0.431000 -2.178228e-04
0.434000 -2.246988e-04
0.437000 -2.294083e-04
0.440000 -2.318370e-04
0.443000 -2.319171e-04
0.446000 -2.296291e-04
0.449000 -2.250020e-04
0.452000 -2.181126e-04
0.455000 -2.090845e-04
0.458000 -1.980850e-04
0.461000 -1.853222e-04
0.464000 -1.710407e-04
0.467000 -1.555163e-04
0.470000 -1.390508e-04
0.473000 -1.219656e-04
0.476000 -1.045953e-04
0.479000 -8.728083e-05
0.482000 -7.036252e-05
0.485000 -5.417325e-05
0.488000 -3.903163e-05
0.491000 -2.523556e-05
0.494000 -1.305619e-05
0.497000 -2.732481e-06
0.500000 5.533701e-06
0.503000 1.158158e-05
0.506000 1.529475e-05
0.509000 1.660345e-05
0.512000 1.548601e-05
0.515000 1.196919e-05
0.518000 6.127675e-06
0.521000 -1.917507e-06
0.524000 -1.200143e-05
0.527000 -2.391863e-05
0.530000 -3.742725e-05
0.533000 -5.225389e-05
0.536000 -6.809919e-05
0.539000 -8.464374e-05
0.542000 -1.015545e-04
0.545000 -1.184916e-04
0.548000 -1.351149e-04
0.551000 -1.510908e-04
0.554000 -1.660991e-04
0.557000 -1.798388e-04
0.560000 -1.920348e-04
0.563000 -2.024425e-04
0.566000 -2.108531e-04
0.569000 -2.170975e-04
0.572000 -2.210495e-04
0.575000 -2.226282e-04
0.578000 -2.217994e-04
0.581000 -2.185764e-04
0.584000 -2.130192e-04
0.587000 -2.052337e-04
0.590000 -1.953690e-04
0.593000 -1.836144e-04
0.596000 -1.701957e-04
0.599000 -1.553707e-04
0.602000 -1.394238e-04
0.605000 -1.226604e-04
0.608000 -1.054010e-04
0.611000 -8.797437e-05
0.614000 -7.071178e-05
0.617000 -5.393997e-05
0.620000 -3.797496e-05
0.623000 -2.311594e-05
0.626000 -9.639428e-06
0.629000 2.205977e-06
0.632000 1.220433e-05
0.635000 2.017642e-05
0.638000 2.598305e-05
0.641000 2.952757e-05
0.644000 3.075755e-05
0.647000 2.966557e-05
0.650000 2.628912e-05
0.653000 2.070961e-05
0.656000 1.305058e-05
0.659000 3.475055e-06
0.662000 -7.817875e-06
0.665000 -2.059711e-05
0.668000 -3.460421e-05
0.671000 -4.955861e-05
0.674000 -6.516315e-05
0.677000 -8.111000e-05
0.680000 -9.708666e-05
0.683000 -1.127820e-04
0.686000 -1.278925e-04
0.689000 -1.421277e-04
0.692000 -1.552161e-04
0.695000 -1.669102e-04
0.698000 -1.769908e-04
0.701000 -1.852718e-04
0.704000 -1.916026e-04
0.707000 -1.958716e-04
0.710000 -1.980076e-04
0.713000 -1.979812e-04
0.716000 -1.958047e-04
0.719000 -1.915320e-04
0.722000 -1.852570e-04
0.725000 -1.771114e-04
0.728000 -1.672624e-04
0.731000 -1.559086e-04
0.734000 -1.432766e-04
0.737000 -1.296159e-04
0.740000 -1.151944e-04
0.743000 -1.002932e-04
0.746000 -8.520092e-05
0.749000 -7.020836e-05
0.752000 -5.560319e-05
0.755000 -4.166452e-05
0.758000 -2.865795e-05
0.761000 -1.683082e-05
0.764000 -6.408048e-06
0.767000 2.411597e-06
0.770000 9.458568e-06
0.773000 1.459493e-05
0.776000 1.771602e-05
0.779000 1.875138e-05
0.782000 1.766480e-05
0.785000 1.445369e-05
0.788000 9.147509e-06
0.791000 1.805505e-06
0.794000 -7.486330e-06
0.797000 -1.861903e-05
0.800000 -3.146506e-05
0.803000 -4.588334e-05
0.806000 -6.172481e-05
0.809000 -7.883834e-05
0.812000 -9.707715e-05
0.815000 -1.163054e-04
0.818000 -1.364048e-04
0.821000 -1.572820e-04
0.824000 -1.788748e-04
0.827000 -2.011594e-04
0.830000 -2.241568e-04
0.833000 -2.479394e-04
0.836000 -2.726368e-04
0.839000 -2.984416e-04
0.842000 -3.256147e-04
0.845000 -3.544898e-04
0.848000 -3.854781e-04
0.851000 -4.190716e-04
0.854000 -4.558463e-04
0.857000 -4.964649e-04
0.860000 -5.416786e-04
0.863000 -5.923286e-04
0.866000 -6.493466e-04
0.869000 -7.137552e-04
0.872000 -7.866674e-04
0.875000 -8.692855e-04
0.878000 -9.628996e-04
0.881000 -1.068885e-03
0.884000 -1.188701e-03
0.887000 -1.323885e-03
0.890000 -1.476049e-03
0.893000 -1.646876e-03
0.896000 -1.838115e-03
0.899000 -2.051571e-03
0.902000 -2.289102e-03
0.905000 -2.552610e-03
0.908000 -2.844027e-03
0.911000 -3.165313e-03
0.914000 -3.518437e-03
0.917000 -3.905369e-03
0.920000 -4.328062e-03
0.923000 -4.788439e-03
0.926000 -5.288376e-03
0.929000 -5.829680e-03
0.932000 -6.414070e-03
0.935000 -7.043154e-03
0.938000 -7.718406e-03
0.941000 -8.441137e-03
0.944000 -9.212470e-03
0.947000 -1.003331e-02
0.950000 -1.090431e-02
0.953000 -1.182583e-02
0.956000 -1.279795e-02
0.959000 -1.382035e-02
0.962000 -1.489238e-02
0.965000 -1.601291e-02
0.968000 -1.718041e-02
0.971000 -1.839283e-02
0.974000 -1.964762e-02
0.977000 -2.094166e-02
0.980000 -2.227126e-02
0.983000 -2.363214e-02
0.986000 -2.501938e-02
0.989000 -2.642743e-02
0.992000 -2.785008e-02
0.995000 -2.928049e-02
0.998000 -3.071114e-02
1.001000 -3.213388e-02
1.004000 -3.353993e-02
1.007000 -3.491991e-02
1.010000 -3.626388e-02
1.013000 -3.756137e-02
1.016000 -3.880142e-02
1.019000 -3.997270e-02
1.022000 -4.106350e-02
1.025000 -4.206189e-02
1.028000 -4.295572e-02
1.031000 -4.373283e-02
1.034000 -4.438104e-02
1.037000 -4.488834e-02
1.040000 -4.524299e-02
1.043000 -4.543362e-02
1.046000 -4.544938e-02
1.049000 -4.528009e-02
1.052000 -4.491630e-02
1.055000 -4.434951e-02
1.058000 -4.357222e-02
1.061000 -4.257810e-02
1.064000 -4.136211e-02
1.067000 -3.992056e-02
1.070000 -3.825127e-02
1.073000 -3.635363e-02
1.076000 -3.422867e-02
1.079000 -3.187917e-02
1.082000 -2.930962e-02
1.085000 -2.652635e-02
1.088000 -2.353746e-02
1.091000 -2.035286e-02
1.094000 -1.698423e-02
1.097000 -1.344499e-02
1.100000 -9.750188e-03
1.103000 -5.916477e-03
1.106000 -1.961967e-03
1.109000 2.093886e-03
1.112000 6.230415e-03
1.115000 1.042590e-02
1.118000 1.465776e-02
1.121000 1.890270e-02
1.124000 2.313692e-02
1.127000 2.733635e-02
1.130000 3.147682e-02
1.133000 3.553428e-02
1.136000 3.948504e-02
1.139000 4.330595e-02
1.142000 4.697465e-02
1.145000 5.046972e-02
1.148000 5.377094e-02
1.151000 5.685941e-02
1.154000 5.971778e-02
1.157000 6.233034e-02
1.160000 6.468322e-02
1.163000 6.676445e-02
1.166000 6.856411e-02
1.169000 7.007435e-02
1.172000 7.128951e-02
1.175000 7.220609e-02
1.178000 7.282276e-02
1.181000 7.314039e-02
1.184000 7.316199e-02
1.187000 7.289262e-02
1.190000 7.233935e-02
1.193000 7.151113e-02
1.196000 7.041870e-02
1.199000 6.907445e-02
1.202000 6.749225e-02
1.205000 6.568731e-02
1.208000 6.367600e-02
1.211000 6.147571e-02
1.214000 5.910462e-02
1.217000 5.658152e-02
1.220000 5.392566e-02
1.223000 5.115656e-02
1.226000 4.829378e-02
1.229000 4.535682e-02
1.232000 4.236490e-02
1.235000 3.933682e-02
1.238000 3.629082e-02
1.241000 3.324445e-02
1.244000 3.021443e-02
1.247000 2.721655e-02
1.250000 2.426560e-02
1.253000 2.137527e-02
1.256000 1.855808e-02
1.259000 1.582536e-02
1.262000 1.318720e-02
1.265000 1.065245e-02
1.268000 8.228686e-03
1.271000 5.922259e-03
1.274000 3.738283e-03
1.277000 1.680685e-03
1.280000 -2.477519e-04
1.283000 -2.045342e-03
1.286000 -3.711433e-03
1.289000 -5.246338e-03
1.292000 -6.651268e-03
1.295000 -7.928253e-03
1.298000 -9.080061e-03
1.301000 -1.011012e-02
1.304000 -1.102244e-02
1.307000 -1.182153e-02
1.310000 -1.251230e-02
1.313000 -1.310002e-02
1.316000 -1.359022e-02
1.319000 -1.398862e-02
1.322000 -1.430108e-02
1.325000 -1.453351e-02
1.328000 -1.469184e-02
1.331000 -1.478196e-02
1.334000 -1.480967e-02
1.337000 -1.478064e-02
1.340000 -1.470038e-02
1.343000 -1.457419e-02
1.346000 -1.440718e-02
1.349000 -1.420419e-02
1.352000 -1.396983e-02
1.355000 -1.370843e-02
1.358000 -1.342409e-02
1.361000 -1.312058e-02
1.364000 -1.280144e-02
1.367000 -1.246995e-02
1.370000 -1.212909e-02
1.373000 -1.178164e-02
1.376000 -1.143011e-02
1.379000 -1.107680e-02
1.382000 -1.072378e-02
1.385000 -1.037294e-02
1.388000 -1.002598e-02
1.391000 -9.684448e-03
1.394000 -9.349722e-03
1.397000 -9.023056e-03
1.400000 -8.705583e-03
1.403000 -8.398333e-03
1.406000 -8.102243e-03
1.409000 -7.818176e-03
1.412000 -7.546930e-03
1.415000 -7.289254e-03
1.418000 -7.045854e-03
1.421000 -6.817411e-03
1.424000 -6.604583e-03
1.427000 -6.408020e-03
1.430000 -6.228371e-03
1.433000 -6.066292e-03
1.436000 -5.922450e-03
1.439000 -5.797534e-03
1.442000 -5.692262e-03
1.445000 -5.607380e-03
1.448000 -5.543675e-03
1.451000 -5.501976e-03
1.454000 -5.483159e-03
1.457000 -5.488150e-03
1.460000 -5.517932e-03
1.463000 -5.573547e-03
1.466000 -5.656097e-03
1.469000 -5.766749e-03
1.472000 -5.906735e-03
1.475000 -6.077356e-03
1.478000 -6.279980e-03
1.481000 -6.516043e-03
1.484000 -6.787048e-03
1.487000 -7.094563e-03
1.490000 -7.440220e-03
1.493000 -7.825704e-03
1.496000 -8.252755e-03
1.499000 -8.723158e-03
1.502000 -9.238731e-03
1.505000 -9.801320e-03
1.508000 -1.041278e-02
1.511000 -1.107497e-02
1.514000 -1.178974e-02
1.517000 -1.255887e-02
1.520000 -1.338413e-02
1.523000 -1.426717e-02
1.526000 -1.520958e-02
1.529000 -1.621278e-02
1.532000 -1.727807e-02
1.535000 -1.840653e-02
1.538000 -1.959905e-02
1.541000 -2.085625e-02
1.544000 -2.217847e-02
1.547000 -2.356574e-02
1.550000 -2.501772e-02
1.553000 -2.653368e-02
1.556000 -2.811246e-02
1.559000 -2.975243e-02
1.562000 -3.145147e-02
1.565000 -3.320691e-02
1.568000 -3.501552e-02
1.571000 -3.687347e-02
1.574000 -3.877630e-02
1.577000 -4.071888e-02
1.580000 -4.269543e-02
1.583000 -4.469947e-02
1.586000 -4.672380e-02
1.589000 -4.876051e-02
1.592000 -5.080097e-02
1.595000 -5.283586e-02
1.598000 -5.485512e-02
1.601000 -5.684802e-02
1.604000 -5.880316e-02
1.607000 -6.070850e-02
1.610000 -6.255140e-02
1.613000 -6.431869e-02
1.616000 -6.599667e-02
1.619000 -6.757123e-02
1.622000 -6.902789e-02
1.625000 -7.035186e-02
1.628000 -7.152818e-02
1.631000 -7.254174e-02
1.634000 -7.337745e-02
1.637000 -7.402029e-02
1.640000 -7.445546e-02
1.643000 -7.466848e-02
1.646000 -7.464529e-02
1.649000 -7.437242e-02
1.652000 -7.383709e-02
1.655000 -7.302733e-02
1.658000 -7.193213e-02
1.661000 -7.054157e-02
1.664000 -6.884693e-02
1.667000 -6.684082e-02
1.670000 -6.451731e-02
1.673000 -6.187204e-02
1.676000 -5.890234e-02
1.679000 -5.560729e-02
1.682000 -5.198787e-02
1.685000 -4.804700e-02
1.688000 -4.378961e-02
1.691000 -3.922272e-02
1.694000 -3.435546e-02
1.697000 -2.919911e-02
1.700000 -2.376709e-02
1.703000 -1.807500e-02
1.706000 -1.214053e-02
1.709000 -5.983488e-03
1.712000 3.743148e-04
1.715000 6.909109e-03
1.718000 1.359528e-02
1.721000 2.040546e-02
1.724000 2.731071e-02
1.727000 3.428060e-02
1.730000 4.128346e-02
1.733000 4.828646e-02
1.736000 5.525593e-02
1.739000 6.215747e-02
1.742000 6.895623e-02
1.745000 7.561713e-02
1.748000 8.210509e-02
1.751000 8.838532e-02
1.754000 9.442353e-02
1.757000 1.001862e-01
1.760000 1.056410e-01
1.763000 1.107566e-01
1.766000 1.155034e-01
1.769000 1.198538e-01
1.772000 1.237818e-01
1.775000 1.272639e-01
1.778000 1.302792e-01
1.781000 1.328093e-01
1.784000 1.348385e-01
1.787000 1.363545e-01
1.790000 1.373478e-01
1.793000 1.378122e-01
1.796000 1.377450e-01
1.799000 1.371467e-01
1.802000 1.360213e-01
1.805000 1.343762e-01
1.808000 1.322221e-01
1.811000 1.295732e-01
1.814000 1.264467e-01
1.817000 1.228632e-01
1.820000 1.188459e-01
1.823000 1.144212e-01
1.826000 1.096179e-01
1.829000 1.044670e-01
1.832000 9.900185e-02
1.835000 9.325766e-02
1.838000 8.727113e-02
1.841000 8.108024e-02
1.844000 7.472396e-02
1.847000 6.824189e-02
1.850000 6.167396e-02
1.853000 5.506007e-02
1.856000 4.843981e-02
1.859000 4.185209e-02
1.862000 3.533487e-02
1.865000 2.892479e-02
1.868000 2.265696e-02
1.871000 1.656463e-02
1.874000 1.067895e-02
1.877000 5.028740e-03
1.880000 -3.597074e-04
1.883000 -5.462826e-03
1.886000 -1.025992e-02
1.889000 -1.473327e-02
1.892000 -1.886826e-02
1.895000 -2.265340e-02
1.898000 -2.608038e-02
1.901000 -2.914403e-02
1.904000 -3.184235e-02
1.907000 -3.417635e-02
1.910000 -3.615003e-02
1.913000 -3.777021e-02
1.916000 -3.904642e-02
1.919000 -3.999065e-02
1.922000 -4.061723e-02
1.925000 -4.094256e-02
1.928000 -4.098490e-02
1.931000 -4.076409e-02
1.934000 -4.030134e-02
1.937000 -3.961890e-02
1.940000 -3.873984e-02
1.943000 -3.768774e-02
1.946000 -3.648645e-02
1.949000 -3.515980e-02
1.952000 -3.373137e-02
1.955000 -3.222420e-02
1.958000 -3.066062e-02
1.961000 -2.906199e-02
1.964000 -2.744851e-02
1.967000 -2.583909e-02
1.970000 -2.425112e-02
1.973000 -2.270043e-02
1.976000 -2.120112e-02
1.979000 -1.976553e-02
1.982000 -1.840416e-02
1.985000 -1.712566e-02
1.988000 -1.593682e-02
1.991000 -1.484262e-02
1.994000 -1.384624e-02
1.997000 -1.294918e-02
2.000000 -1.215128e-02
2.003000 -1.145092e-02
2.006000 -1.084508e-02
2.009000 -1.032949e-02
2.012000 -9.898797e-03
2.015000 -9.546726e-03
2.018000 -9.266223e-03
2.021000 -9.049644e-03
2.024000 -8.888912e-03
2.027000 -8.775691e-03
2.030000 -8.701543e-03
2.033000 -8.658088e-03
2.036000 -8.637143e-03
2.039000 -8.630863e-03
2.042000 -8.631858e-03
2.045000 -8.633301e-03
2.048000 -8.629020e-03
2.051000 -8.613569e-03
2.054000 -8.582291e-03
2.057000 -8.531352e-03
2.060000 -8.457766e-03
2.063000 -8.359400e-03
2.066000 -8.234964e-03
2.069000 -8.083980e-03
2.072000 -7.906749e-03
2.075000 -7.704286e-03
2.078000 -7.478264e-03
2.081000 -7.230934e-03
2.084000 -6.965046e-03
2.087000 -6.683754e-03
2.090000 -6.390529e-03
2.093000 -6.089064e-03
2.096000 -5.783176e-03
2.099000 -5.476716e-03
2.102000 -5.173482e-03
2.105000 -4.877129e-03
2.108000 -4.591103e-03
2.111000 -4.318561e-03
2.114000 -4.062320e-03
2.117000 -3.824804e-03
2.120000 -3.608007e-03
2.123000 -3.413463e-03
2.126000 -3.242234e-03
2.129000 -3.094900e-03
2.132000 -2.971565e-03
2.135000 -2.871878e-03
2.138000 -2.795050e-03
2.141000 -2.739891e-03
2.144000 -2.704853e-03
2.147000 -2.688073e-03
2.150000 -2.687429e-03
2.153000 -2.700593e-03
2.156000 -2.725089e-03
2.159000 -2.758353e-03
2.162000 -2.797794e-03
2.165000 -2.840844e-03
2.168000 -2.885021e-03
2.171000 -2.927970e-03
2.174000 -2.967517e-03
2.177000 -3.001699e-03
2.180000 -3.028806e-03
2.183000 -3.047401e-03
2.186000 -3.056342e-03
2.189000 -3.054791e-03
2.192000 -3.042223e-03
2.195000 -3.018416e-03
2.198000 -2.983449e-03
2.201000 -2.937681e-03
2.204000 -2.881730e-03
2.207000 -2.816448e-03
2.210000 -2.742889e-03
2.213000 -2.662276e-03
2.216000 -2.575964e-03
2.219000 -2.485399e-03
2.222000 -2.392084e-03
2.225000 -2.297539e-03
2.228000 -2.203264e-03
2.231000 -2.110701e-03
2.234000 -2.021208e-03
2.237000 -1.936025e-03
2.240000 -1.856251e-03
2.243000 -1.782823e-03
2.246000 -1.716500e-03
2.249000 -1.657854e-03
2.252000 -1.607259e-03
2.255000 -1.564897e-03
2.258000 -1.530754e-03
2.261000 -1.504632e-03
2.264000 -1.486162e-03
2.267000 -1.474816e-03
2.270000 -1.469927e-03
2.273000 -1.470714e-03
2.276000 -1.476300e-03
2.279000 -1.485738e-03
2.282000 -1.498041e-03
2.285000 -1.512200e-03
2.288000 -1.527214e-03
2.291000 -1.542114e-03
2.294000 -1.555982e-03
2.297000 -1.567972e-03
2.300000 -1.577331e-03
2.303000 -1.583407e-03
2.306000 -1.585668e-03
2.309000 -1.583707e-03
2.312000 -1.577245e-03
2.315000 -1.566136e-03
2.318000 -1.550366e-03
2.321000 -1.530045e-03
2.324000 -1.505402e-03
2.327000 -1.476774e-03
2.330000 -1.444596e-03
2.333000 -1.409384e-03
2.336000 -1.371719e-03
2.339000 -1.332233e-03
2.342000 -1.291590e-03
2.345000 -1.250470e-03
2.348000 -1.209550e-03
2.351000 -1.169485e-03
2.354000 -1.130900e-03
2.357000 -1.094369e-03
2.360000 -1.060404e-03
2.363000 -1.029447e-03
2.366000 -1.001857e-03
2.369000 -9.779088e-04
2.372000 -9.577840e-04
2.375000 -9.415725e-04
2.378000 -9.292720e-04
2.381000 -9.207905e-04
2.384000 -9.159517e-04
2.387000 -9.145008e-04
2.390000 -9.161135e-04
2.393000 -9.204051e-04
2.396000 -9.269417e-04
2.399000 -9.352514e-04
2.402000 -9.448367e-04
2.405000 -9.551866e-04
2.408000 -9.657890e-04
2.411000 -9.761424e-04
2.414000 -9.857673e-04
2.417000 -9.942166e-04
2.420000 -1.001085e-03
2.423000 -1.006016e-03
2.426000 -1.008711e-03
2.429000 -1.008931e-03
2.432000 -1.006503e-03
2.435000 -1.001322e-03
2.438000 -9.933485e-04
2.441000 -9.826109e-04
2.444000 -9.692005e-04
2.447000 -9.532688e-04
2.450000 -9.350219e-04
2.453000 -9.147145e-04
2.456000 -8.926431e-04
2.459000 -8.691378e-04
2.462000 -8.445546e-04
2.465000 -8.192668e-04
2.468000 -7.936565e-04
2.471000 -7.681060e-04
2.474000 -7.429901e-04
2.477000 -7.186678e-04
2.480000 -6.954759e-04
2.483000 -6.737219e-04
2.486000 -6.536791e-04
2.489000 -6.355815e-04
2.492000 -6.196205e-04
2.495000 -6.059418e-04
2.498000 -5.946440e-04
2.501000 -5.857779e-04
2.504000 -5.793469e-04
2.507000 -5.753078e-04
2.510000 -5.735737e-04
2.513000 -5.740158e-04
2.516000 -5.764679e-04
2.519000 -5.807300e-04
2.522000 -5.865732e-04
2.525000 -5.937445e-04
2.528000 -6.019726e-04
2.531000 -6.109724e-04
2.534000 -6.204518e-04
2.537000 -6.301160e-04
2.540000 -6.396736e-04
2.543000 -6.488416e-04
2.546000 -6.573503e-04
2.549000 -6.649475e-04
2.552000 -6.714031e-04
2.555000 -6.765122e-04
2.558000 -6.800987e-04
2.561000 -6.820176e-04
2.564000 -6.821572e-04
2.567000 -6.804401e-04
2.570000 -6.768249e-04
2.573000 -6.713055e-04
2.576000 -6.639116e-04
2.579000 -6.547072e-04
2.582000 -6.437896e-04
2.585000 -6.312875e-04
2.588000 -6.173581e-04
2.591000 -6.021846e-04
2.594000 -5.859728e-04
2.597000 -5.689476e-04
