-0.400000 2.590296e-04
-0.397000 2.427606e-04
-0.394000 2.263306e-04
-0.391000 2.100012e-04
-0.388000 1.940327e-04
-0.385000 1.786788e-04
-0.382000 1.641827e-04
-0.379000 1.507721e-04
-0.376000 1.386553e-04
-0.373000 1.280168e-04
-0.370000 1.190140e-04
-0.367000 1.117740e-04
-0.364000 1.063908e-04
-0.361000 1.029234e-04
-0.358000 1.013944e-04
-0.355000 1.017889e-04
-0.352000 1.040550e-04
-0.349000 1.081041e-04
-0.346000 1.138126e-04
-0.343000 1.210235e-04
-0.340000 1.295499e-04
-0.337000 1.391784e-04
-0.334000 1.496726e-04
-0.331000 1.607787e-04
-0.328000 1.722296e-04
-0.325000 1.837510e-04
-0.322000 1.950671e-04
-0.319000 2.059059e-04
-0.316000 2.160052e-04
-0.313000 2.251186e-04
-0.310000 2.330203e-04
-0.307000 2.395107e-04
-0.304000 2.444203e-04
-0.301000 2.476141e-04
-0.298000 2.489945e-04
-0.295000 2.485038e-04
-0.292000 2.461255e-04
-0.289000 2.418850e-04
-0.286000 2.358493e-04
-0.283000 2.281255e-04
-0.280000 2.188588e-04
-0.277000 2.082291e-04
-0.274000 1.964472e-04
-0.271000 1.837499e-04
-0.268000 1.703949e-04
-0.265000 1.566547e-04
-0.262000 1.428104e-04
-0.259000 1.291454e-04
-0.256000 1.159382e-04
-0.253000 1.034567e-04
-0.250000 9.195128e-05
-0.247000 8.164918e-05
-0.244000 7.274907e-05
-0.241000 6.541635e-05
-0.238000 5.977920e-05
-0.235000 5.592561e-05
-0.232000 5.390125e-05
-0.229000 5.370845e-05
-0.226000 5.530618e-05
-0.223000 5.861117e-05
-0.220000 6.349992e-05
-0.217000 6.981182e-05
-0.214000 7.735313e-05
-0.211000 8.590177e-05
-0.208000 9.521285e-05
-0.205000 1.050247e-04
-0.202000 1.150653e-04
-0.199000 1.250591e-04
-0.196000 1.347338e-04
-0.193000 1.438269e-04
-0.190000 1.520925e-04
-0.187000 1.593069e-04
-0.184000 1.652745e-04
-0.181000 1.698324e-04
-0.178000 1.728540e-04
-0.175000 1.742527e-04
-0.172000 1.739832e-04
-0.169000 1.720430e-04
-0.166000 1.684719e-04
-0.163000 1.633511e-04
-0.160000 1.568007e-04
-0.157000 1.489769e-04
-0.154000 1.400675e-04
-0.151000 1.302869e-04
-0.148000 1.198713e-04
-0.145000 1.090717e-04
-0.142000 9.814810e-05
-0.139000 8.736245e-05
-0.136000 7.697224e-05
-0.133000 6.722375e-05
-0.130000 5.834594e-05
-0.127000 5.054457e-05
-0.124000 4.399703e-05
-0.121000 3.884795e-05
-0.118000 3.520550e-05
-0.115000 3.313884e-05
-0.112000 3.267635e-05
-0.109000 3.380510e-05
-0.106000 3.647119e-05
-0.103000 4.058133e-05
-0.100000 4.600523e-05
-0.097000 5.257904e-05
-0.094000 6.010964e-05
-0.091000 6.837958e-05
-0.088000 7.715271e-05
-0.085000 8.618025e-05
-0.082000 9.520717e-05
-0.079000 1.039787e-04
-0.076000 1.122469e-04
-0.073000 1.197768e-04
-0.070000 1.263527e-04
-0.067000 1.317834e-04
-0.064000 1.359070e-04
-0.061000 1.385955e-04
-0.058000 1.397574e-04
-0.055000 1.393405e-04
-0.052000 1.373330e-04
-0.049000 1.337641e-04
-0.046000 1.287029e-04
-0.043000 1.222569e-04
-0.040000 1.145692e-04
-0.037000 1.058153e-04
-0.034000 9.619796e-05
-0.031000 8.594298e-05
-0.028000 7.529291e-05
-0.025000 6.450130e-05
-0.022000 5.382623e-05
-0.019000 4.352391e-05
-0.016000 3.384223e-05
-0.013000 2.501457e-05
-0.010000 1.725394e-05
-0.007000 1.074765e-05
-0.004000 5.652541e-06
-0.001000 2.091090e-06
0.002000 1.482500e-07
0.005000 -1.307280e-07
0.008000 1.258489e-06
0.011000 4.279107e-06
0.014000 8.854009e-06
0.017000 1.486755e-05
0.020000 2.216831e-05
0.023000 3.057267e-05
0.026000 3.986931e-05
0.029000 4.982420e-05
0.032000 6.018634e-05
0.035000 7.069380e-05
0.038000 8.108006e-05
0.041000 9.108049e-05
0.044000 1.004388e-04
0.047000 1.089132e-04
0.050000 1.162825e-04
0.053000 1.223512e-04
0.056000 1.269545e-04
0.059000 1.299625e-04
0.062000 1.312829e-04
0.065000 1.308641e-04
0.068000 1.286957e-04
0.071000 1.248096e-04
0.074000 1.192789e-04
0.077000 1.122166e-04
0.080000 1.037727e-04
0.083000 9.413079e-05
0.086000 8.350405e-05
0.089000 7.212996e-05
0.092000 6.026483e-05
0.095000 4.817777e-05
0.098000 3.614436e-05
0.101000 2.444009e-05
0.104000 1.333392e-05
0.107000 3.081826e-06
0.110000 -6.079233e-06
0.113000 -1.393696e-05
0.116000 -2.030881e-05
0.119000 -2.504635e-05
0.122000 -2.803884e-05
0.125000 -2.921598e-05
0.128000 -2.854964e-05
0.131000 -2.605464e-05
0.134000 -2.178857e-05
0.137000 -1.585052e-05
0.140000 -8.378925e-06
0.143000 4.515488e-07
0.146000 1.043398e-05
0.149000 2.133389e-05
0.152000 3.289461e-05
0.155000 4.484319e-05
0.158000 5.689664e-05
0.161000 6.876848e-05
0.164000 8.017536e-05
0.167000 9.084358e-05
0.170000 1.005155e-04
0.173000 1.089554e-04
0.176000 1.159551e-04
0.179000 1.213389e-04
0.182000 1.249674e-04
0.185000 1.267413e-04
0.188000 1.266032e-04
0.191000 1.245397e-04
0.194000 1.205812e-04
0.197000 1.148019e-04
0.200000 1.073179e-04
0.203000 9.828481e-05
0.206000 8.789428e-05
0.209000 7.636982e-05
0.212000 6.396176e-05
0.215000 5.094172e-05
0.218000 3.759643e-05
0.221000 2.422137e-05
0.224000 1.111405e-05
0.227000 -1.432660e-06
0.230000 -1.313721e-05
0.233000 -2.373573e-05
0.236000 -3.298802e-05
0.239000 -4.068307e-05
0.242000 -4.664388e-05
0.245000 -5.073158e-05
0.248000 -5.284863e-05
0.251000 -5.294119e-05
0.254000 -5.100047e-05
0.257000 -4.706307e-05
0.260000 -4.121034e-05
0.263000 -3.356672e-05
0.266000 -2.429713e-05
0.269000 -1.360344e-05
0.272000 -1.720106e-06
0.275000 1.109087e-05
0.278000 2.454568e-05
0.281000 3.834490e-05
0.284000 5.218006e-05
0.287000 6.574039e-05
0.290000 7.871968e-05
0.293000 9.082303e-05
0.296000 1.017734e-04
0.299000 1.113177e-04
0.302000 1.192325e-04
0.305000 1.253289e-04
0.308000 1.294570e-04
0.311000 1.315092e-04
0.314000 1.314224e-04
0.317000 1.291802e-04
0.320000 1.248127e-04
0.323000 1.183967e-04
0.326000 1.100536e-04
0.329000 9.994727e-05
0.332000 8.828046e-05
0.335000 7.529078e-05
0.338000 6.124550e-05
0.341000 4.643596e-05
0.344000 3.117138e-05
0.347000 1.577227e-05
0.350000 5.635724e-07
0.353000 -1.413226e-05
0.356000 -2.800220e-05
0.359000 -4.074938e-05
0.362000 -5.209945e-05
0.365000 -6.180651e-05
0.368000 -6.965848e-05
0.371000 -7.548164e-05
0.374000 -7.914451e-05
0.377000 -8.056071e-05
0.380000 -7.969096e-05
0.383000 -7.654405e-05
0.386000 -7.117676e-05
0.389000 -6.369284e-05
0.392000 -5.424091e-05
0.395000 -4.301151e-05
0.398000 -3.023314e-05
0.401000 -1.616763e-05
0.404000 -1.104682e-06
0.407000 1.464409e-05
0.410000 3.075163e-05
0.413000 4.688225e-05
0.416000 6.269860e-05
0.419000 7.786868e-05
0.422000 9.207278e-05
0.425000 1.050101e-04
0.428000 1.164052e-04
0.431000 1.260134e-04
0.434000 1.336263e-04
0.437000 1.390760e-04
0.440000 1.422385e-04
0.443000 1.430366e-04
0.446000 1.414412e-04
0.449000 1.374725e-04
0.452000 1.311991e-04
0.455000 1.227369e-04
0.458000 1.122469e-04
0.461000 9.993196e-05
0.464000 8.603227e-05
0.467000 7.082100e-05
0.470000 5.459849e-05
0.473000 3.768621e-05
0.476000 2.042024e-05
0.479000 3.144400e-06
0.482000 -1.379668e-05
0.485000 -3.006458e-05
0.488000 -4.533396e-05
0.491000 -5.929915e-05
0.494000 -7.168032e-05
0.497000 -8.222916e-05
0.500000 -9.073389e-05
0.503000 -9.702352e-05
0.506000 -1.009713e-04
0.509000 -1.024973e-04
0.512000 -1.015698e-04
0.515000 -9.820625e-05
0.518000 -9.247265e-05
0.521000 -8.448220e-05
0.524000 -7.439309e-05
0.527000 -6.240525e-05
0.530000 -4.875630e-05
0.533000 -3.371681e-05
0.536000 -1.758482e-05
0.539000 -6.798912e-07
0.542000 1.666332e-05
0.545000 3.410169e-05
0.548000 5.129053e-05
0.551000 6.789038e-05
0.554000 8.357378e-05
0.557000 9.803169e-05
0.560000 1.109797e-04
0.563000 1.221633e-04
0.566000 1.313634e-04
0.569000 1.383999e-04
0.572000 1.431358e-04
0.575000 1.454794e-04
0.578000 1.453859e-04
0.581000 1.428586e-04
0.584000 1.379483e-04
0.587000 1.307523e-04
0.590000 1.214125e-04
0.593000 1.101121e-04
0.596000 9.707217e-05
0.599000 8.254713e-05
0.602000 6.681957e-05
0.605000 5.019465e-05
0.608000 3.299404e-05
0.611000 1.554954e-05
0.614000 -1.803393e-06
0.617000 -1.873230e-05
0.620000 -3.491413e-05
0.623000 -5.004156e-05
0.626000 -6.382889e-05
0.629000 -7.601754e-05
0.632000 -8.638096e-05
0.635000 -9.472888e-05
0.638000 -1.009109e-04
0.641000 -1.048190e-04
0.644000 -1.063899e-04
0.647000 -1.056054e-04
0.650000 -1.024933e-04
0.653000 -9.712573e-05
0.656000 -8.961820e-05
0.659000 -8.012680e-05
0.662000 -6.884503e-05
0.665000 -5.599978e-05
0.668000 -4.184677e-05
0.671000 -2.666543e-05
0.674000 -1.075332e-05
0.677000 5.579749e-06
0.680000 2.201775e-05
0.683000 3.824461e-05
0.686000 5.395036e-05
0.689000 6.883701e-05
0.692000 8.262429e-05
0.695000 9.505489e-05
0.698000 1.058993e-04
0.701000 1.149600e-04
0.704000 1.220751e-04
0.707000 1.271211e-04
0.710000 1.300149e-04
0.713000 1.307155e-04
0.716000 1.292238e-04
0.719000 1.255827e-04
0.722000 1.198759e-04
0.725000 1.122255e-04
0.728000 1.027899e-04
0.731000 9.175973e-05
0.734000 7.935438e-05
0.737000 6.581712e-05
0.740000 5.141022e-05
0.743000 3.640958e-05
0.746000 2.109914e-05
0.749000 5.765169e-06
0.752000 -9.309487e-06
0.755000 -2.385108e-05
0.758000 -3.760043e-05
0.761000 -5.031813e-05
0.764000 -6.178938e-05
0.767000 -7.182833e-05
0.770000 -8.028198e-05
0.773000 -8.703336e-05
0.776000 -9.200423e-05
0.779000 -9.515700e-05
0.782000 -9.649603e-05
0.785000 -9.606824e-05
0.788000 -9.396301e-05
0.791000 -9.031153e-05
0.794000 -8.528546e-05
0.797000 -7.909512e-05
0.800000 -7.198716e-05
0.803000 -6.424187e-05
0.806000 -5.617019e-05
0.809000 -4.811046e-05
0.812000 -4.042517e-05
0.815000 -3.349761e-05
0.818000 -2.772869e-05
0.821000 -2.353397e-05
0.824000 -2.134098e-05
0.827000 -2.158702e-05
0.830000 -2.471739e-05
0.833000 -3.118432e-05
0.836000 -4.144647e-05
0.839000 -5.596921e-05
0.842000 -7.522566e-05
0.845000 -9.969850e-05
0.848000 -1.298826e-04
0.851000 -1.662887e-04
0.854000 -2.094470e-04
0.857000 -2.599130e-04
0.860000 -3.182722e-04
0.863000 -3.851472e-04
0.866000 -4.612037e-04
0.869000 -5.471577e-04
0.872000 -6.437831e-04
0.875000 -7.519187e-04
0.878000 -8.724757e-04
0.881000 -1.006445e-03
0.884000 -1.154902e-03
0.887000 -1.319015e-03
0.890000 -1.500049e-03
0.893000 -1.699370e-03
0.896000 -1.918446e-03
0.899000 -2.158850e-03
0.902000 -2.422260e-03
0.905000 -2.710454e-03
0.908000 -3.025308e-03
0.911000 -3.368787e-03
0.914000 -3.742939e-03
0.917000 -4.149879e-03
0.920000 -4.591777e-03
0.923000 -5.070842e-03
0.926000 -5.589297e-03
0.929000 -6.149363e-03
0.932000 -6.753228e-03
0.935000 -7.403020e-03
0.938000 -8.100777e-03
0.941000 -8.848411e-03
0.944000 -9.647673e-03
0.947000 -1.050012e-02
0.950000 -1.140705e-02
0.953000 -1.236951e-02
0.956000 -1.338821e-02
0.959000 -1.446348e-02
0.962000 -1.559525e-02
0.965000 -1.678299e-02
0.968000 -1.802570e-02
0.971000 -1.932179e-02
0.974000 -2.066914e-02
0.977000 -2.206499e-02
0.980000 -2.350594e-02
0.983000 -2.498791e-02
0.986000 -2.650613e-02
0.989000 -2.805511e-02
0.992000 -2.962863e-02
0.995000 -3.121972e-02
0.998000 -3.282070e-02
1.001000 -3.442315e-02
1.004000 -3.601795e-02
1.007000 -3.759532e-02
1.010000 -3.914483e-02
1.013000 -4.065545e-02
1.016000 -4.211562e-02
1.019000 -4.351333e-02
1.022000 -4.483617e-02
1.025000 -4.607140e-02
1.028000 -4.720611e-02
1.031000 -4.822724e-02
1.034000 -4.912177e-02
1.037000 -4.987676e-02
1.040000 -5.047955e-02
1.043000 -5.091783e-02
1.046000 -5.117980e-02
1.049000 -5.125429e-02
1.052000 -5.113091e-02
1.055000 -5.080017e-02
1.058000 -5.025361e-02
1.061000 -4.948395e-02
1.064000 -4.848518e-02
1.067000 -4.725268e-02
1.070000 -4.578334e-02
1.073000 -4.407564e-02
1.076000 -4.212972e-02
1.079000 -3.994747e-02
1.082000 -3.753255e-02
1.085000 -3.489045e-02
1.088000 -3.202848e-02
1.091000 -2.895580e-02
1.094000 -2.568335e-02
1.097000 -2.222385e-02
1.100000 -1.859171e-02
1.103000 -1.480298e-02
1.106000 -1.087521e-02
1.109000 -6.827362e-03
1.112000 -2.679659e-03
1.115000 1.546557e-03
1.118000 5.829002e-03
1.121000 1.014462e-02
1.124000 1.446978e-02
1.127000 1.878046e-02
1.130000 2.305249e-02
1.133000 2.726172e-02
1.136000 3.138424e-02
1.139000 3.539661e-02
1.142000 3.927606e-02
1.145000 4.300068e-02
1.148000 4.654963e-02
1.151000 4.990331e-02
1.154000 5.304354e-02
1.157000 5.595371e-02
1.160000 5.861891e-02
1.163000 6.102609e-02
1.166000 6.316411e-02
1.169000 6.502386e-02
1.172000 6.659829e-02
1.175000 6.788247e-02
1.178000 6.887361e-02
1.181000 6.957102e-02
1.184000 6.997613e-02
1.187000 7.009241e-02
1.190000 6.992529e-02
1.193000 6.948210e-02
1.196000 6.877197e-02
1.199000 6.780568e-02
1.202000 6.659554e-02
1.205000 6.515525e-02
1.208000 6.349974e-02
1.211000 6.164499e-02
1.214000 5.960789e-02
1.217000 5.740603e-02
1.220000 5.505755e-02
1.223000 5.258097e-02
1.226000 4.999499e-02
1.229000 4.731836e-02
1.232000 4.456967e-02
1.235000 4.176725e-02
1.238000 3.892899e-02
1.241000 3.607222e-02
1.244000 3.321359e-02
1.247000 3.036895e-02
1.250000 2.755328e-02
1.253000 2.478057e-02
1.256000 2.206378e-02
1.259000 1.941478e-02
1.262000 1.684432e-02
1.265000 1.436196e-02
1.268000 1.197611e-02
1.271000 9.693993e-03
1.274000 7.521677e-03
1.277000 5.464077e-03
1.280000 3.524999e-03
1.283000 1.707173e-03
1.286000 1.230195e-05
1.289000 -1.558880e-03
1.292000 -3.006551e-03
1.295000 -4.331738e-03
1.298000 -5.536242e-03
1.301000 -6.622574e-03
1.304000 -7.593876e-03
1.307000 -8.453853e-03
1.310000 -9.206696e-03
1.313000 -9.857010e-03
1.316000 -1.040974e-02
1.319000 -1.087012e-02
1.322000 -1.124358e-02
1.325000 -1.153569e-02
1.328000 -1.175213e-02
1.331000 -1.189860e-02
1.334000 -1.198079e-02
1.337000 -1.200432e-02
1.340000 -1.197470e-02
1.343000 -1.189732e-02
1.346000 -1.177737e-02
1.349000 -1.161985e-02
1.352000 -1.142952e-02
1.355000 -1.121093e-02
1.358000 -1.096831e-02
1.361000 -1.070566e-02
1.364000 -1.042668e-02
1.367000 -1.013477e-02
1.370000 -9.833046e-03
1.373000 -9.524334e-03
1.376000 -9.211161e-03
1.379000 -8.895774e-03
1.382000 -8.580134e-03
1.385000 -8.265935e-03
1.388000 -7.954604e-03
1.391000 -7.647318e-03
1.394000 -7.345011e-03
1.397000 -7.048390e-03
1.400000 -6.757943e-03
1.403000 -6.473955e-03
1.406000 -6.196521e-03
1.409000 -5.925557e-03
1.412000 -5.660812e-03
1.415000 -5.401884e-03
1.418000 -5.148228e-03
1.421000 -4.899170e-03
1.424000 -4.653915e-03
1.427000 -4.411559e-03
1.430000 -4.171099e-03
1.433000 -3.931439e-03
1.436000 -3.691396e-03
1.439000 -3.449714e-03
1.442000 -3.205060e-03
1.445000 -2.956038e-03
1.448000 -2.701185e-03
1.451000 -2.438981e-03
1.454000 -2.167848e-03
1.457000 -1.886153e-03
1.460000 -1.592209e-03
1.463000 -1.284275e-03
1.466000 -9.605591e-04
1.469000 -6.192168e-04
1.472000 -2.583517e-04
1.475000 1.239841e-04
1.478000 5.297898e-04
1.481000 9.611148e-04
1.484000 1.420058e-03
1.487000 1.908764e-03
1.490000 2.429424e-03
1.493000 2.984267e-03
1.496000 3.575558e-03
1.499000 4.205593e-03
1.502000 4.876685e-03
1.505000 5.591162e-03
1.508000 6.351350e-03
1.511000 7.159563e-03
1.514000 8.018084e-03
1.517000 8.929155e-03
1.520000 9.894948e-03
1.523000 1.091755e-02
1.526000 1.199894e-02
1.529000 1.314097e-02
1.532000 1.434530e-02
1.535000 1.561342e-02
1.538000 1.694660e-02
1.541000 1.834583e-02
1.544000 1.981183e-02
1.547000 2.134497e-02
1.550000 2.294528e-02
1.553000 2.461237e-02
1.556000 2.634541e-02
1.559000 2.814310e-02
1.562000 3.000363e-02
1.565000 3.192463e-02
1.568000 3.390315e-02
1.571000 3.593562e-02
1.574000 3.801784e-02
1.577000 4.014492e-02
1.580000 4.231127e-02
1.583000 4.451058e-02
1.586000 4.673582e-02
1.589000 4.897921e-02
1.592000 5.123221e-02
1.595000 5.348555e-02
1.598000 5.572921e-02
1.601000 5.795243e-02
1.604000 6.014376e-02
1.607000 6.229107e-02
1.610000 6.438158e-02
1.613000 6.640192e-02
1.616000 6.833816e-02
1.619000 7.017590e-02
1.622000 7.190031e-02
1.625000 7.349624e-02
1.628000 7.494825e-02
1.631000 7.624077e-02
1.634000 7.735814e-02
1.637000 7.828474e-02
1.640000 7.900512e-02
1.643000 7.950407e-02
1.646000 7.976679e-02
1.649000 7.977901e-02
1.652000 7.952708e-02
1.655000 7.899814e-02
1.658000 7.818025e-02
1.661000 7.706250e-02
1.664000 7.563516e-02
1.667000 7.388981e-02
1.670000 7.181947e-02
1.673000 6.941868e-02
1.676000 6.668367e-02
1.679000 6.361245e-02
1.682000 6.020487e-02
1.685000 5.646275e-02
1.688000 5.238994e-02
1.691000 4.799240e-02
1.694000 4.327820e-02
1.697000 3.825763e-02
1.700000 3.294313e-02
1.703000 2.734938e-02
1.706000 2.149321e-02
1.709000 1.539360e-02
1.712000 9.071657e-03
1.715000 2.550473e-03
1.718000 -4.144908e-03
1.721000 -1.098762e-02
1.724000 -1.794910e-02
1.727000 -2.499923e-02
1.730000 -3.210651e-02
1.733000 -3.923822e-02
1.736000 -4.636064e-02
1.739000 -5.343924e-02
1.742000 -6.043890e-02
1.745000 -6.732416e-02
1.748000 -7.405946e-02
1.751000 -8.060938e-02
1.754000 -8.693890e-02
1.757000 -9.301368e-02
1.760000 -9.880030e-02
1.763000 -1.042665e-01
1.766000 -1.093816e-01
1.769000 -1.141164e-01
1.772000 -1.184438e-01
1.775000 -1.223389e-01
1.778000 -1.257790e-01
1.781000 -1.287443e-01
1.784000 -1.312174e-01
1.787000 -1.331843e-01
1.790000 -1.346336e-01
1.793000 -1.355576e-01
1.796000 -1.359516e-01
1.799000 -1.358143e-01
1.802000 -1.351480e-01
1.805000 -1.339581e-01
1.808000 -1.322538e-01
1.811000 -1.300474e-01
1.814000 -1.273546e-01
1.817000 -1.241941e-01
1.820000 -1.205879e-01
1.823000 -1.165606e-01
1.826000 -1.121397e-01
1.829000 -1.073552e-01
1.832000 -1.022390e-01
1.835000 -9.682530e-02
1.838000 -9.114989e-02
1.841000 -8.524993e-02
1.844000 -7.916370e-02
1.847000 -7.293024e-02
1.850000 -6.658906e-02
1.853000 -6.017978e-02
1.856000 -5.374182e-02
1.859000 -4.731410e-02
1.862000 -4.093466e-02
1.865000 -3.464040e-02
1.868000 -2.846680e-02
1.871000 -2.244757e-02
1.874000 -1.661447e-02
1.877000 -1.099702e-02
1.880000 -5.622298e-03
1.883000 -5.147659e-04
1.886000 4.303916e-03
1.889000 8.815005e-03
1.892000 1.300278e-02
1.895000 1.685461e-02
1.898000 2.036101e-02
1.901000 2.351560e-02
1.904000 2.631513e-02
1.907000 2.875940e-02
1.910000 3.085117e-02
1.913000 3.259606e-02
1.916000 3.400236e-02
1.919000 3.508095e-02
1.922000 3.584500e-02
1.925000 3.630986e-02
1.928000 3.649275e-02
1.931000 3.641258e-02
1.934000 3.608964e-02
1.937000 3.554537e-02
1.940000 3.480211e-02
1.943000 3.388276e-02
1.946000 3.281059e-02
1.949000 3.160892e-02
1.952000 3.030091e-02
1.955000 2.890926e-02
1.958000 2.745602e-02
1.961000 2.596236e-02
1.964000 2.444837e-02
1.967000 2.293290e-02
1.970000 2.143336e-02
1.973000 1.996566e-02
1.976000 1.854402e-02
1.979000 1.718096e-02
1.982000 1.588719e-02
1.985000 1.467162e-02
1.988000 1.354133e-02
1.991000 1.250159e-02
1.994000 1.155592e-02
1.997000 1.070614e-02
2.000000 9.952458e-03
2.003000 9.293571e-03
2.006000 8.726798e-03
2.009000 8.248204e-03
2.012000 7.852748e-03
2.015000 7.534441e-03
2.018000 7.286506e-03
2.021000 7.101547e-03
2.024000 6.971711e-03
2.027000 6.888856e-03
2.030000 6.844714e-03
2.033000 6.831039e-03
2.036000 6.839761e-03
2.039000 6.863114e-03
2.042000 6.893763e-03
2.045000 6.924910e-03
2.048000 6.950386e-03
2.051000 6.964730e-03
2.054000 6.963247e-03
2.057000 6.942051e-03
2.060000 6.898090e-03
2.063000 6.829153e-03
2.066000 6.733864e-03
2.069000 6.611657e-03
2.072000 6.462734e-03
2.075000 6.288023e-03
2.078000 6.089103e-03
2.081000 5.868143e-03
2.084000 5.627811e-03
2.087000 5.371195e-03
2.090000 5.101705e-03
2.093000 4.822987e-03
2.096000 4.538822e-03
2.099000 4.253039e-03
2.102000 3.969426e-03
2.105000 3.691644e-03
2.108000 3.423152e-03
2.111000 3.167136e-03
2.114000 2.926453e-03
2.117000 2.703576e-03
2.120000 2.500556e-03
2.123000 2.318996e-03
2.126000 2.160027e-03
2.129000 2.024305e-03
2.132000 1.912017e-03
2.135000 1.822887e-03
2.138000 1.756210e-03
2.141000 1.710875e-03
2.144000 1.685408e-03
2.147000 1.678018e-03
2.150000 1.686649e-03
2.153000 1.709032e-03
2.156000 1.742744e-03
2.159000 1.785266e-03
2.162000 1.834044e-03
2.165000 1.886538e-03
2.168000 1.940286e-03
2.171000 1.992946e-03
2.174000 2.042346e-03
2.177000 2.086521e-03
2.180000 2.123751e-03
2.183000 2.152581e-03
2.186000 2.171849e-03
2.189000 2.180691e-03
2.192000 2.178550e-03
2.195000 2.165174e-03
2.198000 2.140607e-03
2.201000 2.105172e-03
2.204000 2.059455e-03
2.207000 2.004273e-03
2.210000 1.940650e-03
2.213000 1.869778e-03
2.216000 1.792985e-03
2.219000 1.711698e-03
2.222000 1.627399e-03
2.225000 1.541595e-03
2.228000 1.455774e-03
2.231000 1.371375e-03
2.234000 1.289753e-03
2.237000 1.212152e-03
2.240000 1.139676e-03
2.243000 1.073275e-03
2.246000 1.013721e-03
2.249000 9.616017e-04
2.252000 9.173108e-04
2.255000 8.810488e-04
2.258000 8.528242e-04
2.261000 8.324615e-04
2.264000 8.196124e-04
2.267000 8.137712e-04
2.270000 8.142927e-04
2.273000 8.204137e-04
2.276000 8.312754e-04
2.279000 8.459480e-04
2.282000 8.634559e-04
2.285000 8.828027e-04
2.288000 9.029964e-04
2.291000 9.230726e-04
2.294000 9.421174e-04
2.297000 9.592869e-04
2.300000 9.738253e-04
2.303000 9.850797e-04
2.306000 9.925120e-04
2.309000 9.957079e-04
2.312000 9.943819e-04
2.315000 9.883794e-04
2.318000 9.776760e-04
2.321000 9.623729e-04
2.324000 9.426898e-04
2.327000 9.189553e-04
2.330000 8.915950e-04
2.333000 8.611172e-04
2.336000 8.280978e-04
2.339000 7.931637e-04
2.342000 7.569755e-04
2.345000 7.202102e-04
2.348000 6.835440e-04
2.351000 6.476358e-04
2.354000 6.131111e-04
2.357000 5.805484e-04
2.360000 5.504661e-04
2.363000 5.233117e-04
2.366000 4.994533e-04
2.369000 4.791727e-04
2.372000 4.626613e-04
2.375000 4.500182e-04
2.378000 4.412502e-04
2.381000 4.362746e-04
2.384000 4.349236e-04
2.387000 4.369506e-04
2.390000 4.420383e-04
2.393000 4.498084e-04
2.396000 4.598317e-04
2.399000 4.716402e-04
2.402000 4.847385e-04
2.405000 4.986166e-04
2.408000 5.127617e-04
2.411000 5.266703e-04
2.414000 5.398596e-04
2.417000 5.518777e-04
2.420000 5.623132e-04
2.423000 5.708035e-04
2.426000 5.770413e-04
2.429000 5.807802e-04
2.432000 5.818385e-04
2.435000 5.801012e-04
2.438000 5.755207e-04
2.441000 5.681161e-04
2.444000 5.579706e-04
2.447000 5.452278e-04
2.450000 5.300871e-04
2.453000 5.127972e-04
2.456000 4.936499e-04
2.459000 4.729717e-04
2.462000 4.511166e-04
2.465000 4.284571e-04
2.468000 4.053761e-04
2.471000 3.822582e-04
2.474000 3.594817e-04
2.477000 3.374107e-04
2.480000 3.163882e-04
2.483000 2.967294e-04
2.486000 2.787159e-04
2.489000 2.625912e-04
2.492000 2.485565e-04
2.495000 2.367682e-04
2.498000 2.273358e-04
2.501000 2.203209e-04
2.504000 2.157376e-04
2.507000 2.135533e-04
2.510000 2.136908e-04
2.513000 2.160306e-04
2.516000 2.204146e-04
2.519000 2.266502e-04
2.522000 2.345144e-04
2.525000 2.437590e-04
2.528000 2.541157e-04
2.531000 2.653016e-04
2.534000 2.770246e-04
2.537000 2.889890e-04
2.540000 3.009008e-04
2.543000 3.124730e-04
2.546000 3.234304e-04
2.549000 3.335143e-04
2.552000 3.424869e-04
2.555000 3.501348e-04
2.558000 3.562724e-04
2.561000 3.607447e-04
2.564000 3.634295e-04
2.567000 3.642389e-04
2.570000 3.631207e-04
2.573000 3.600585e-04
2.576000 3.550717e-04
2.579000 3.482151e-04
2.582000 3.395771e-04
2.585000 3.292787e-04
2.588000 3.174703e-04
2.591000 3.043297e-04
2.594000 2.900587e-04
2.597000 2.748791e-04
