-1.388183e-01 0.000000e+00
-1.385683e-01 0.000000e+00
-1.383183e-01 0.000000e+00
-1.380683e-01 0.000000e+00
-1.378183e-01 0.000000e+00
-1.375683e-01 0.000000e+00
-1.373183e-01 0.000000e+00
-1.370683e-01 0.000000e+00
-1.368183e-01 0.000000e+00
-1.365683e-01 0.000000e+00
-1.363183e-01 0.000000e+00
-1.360683e-01 0.000000e+00
-1.358183e-01 0.000000e+00
-1.355683e-01 0.000000e+00
-1.353183e-01 0.000000e+00
-1.350683e-01 0.000000e+00
-1.348183e-01 0.000000e+00
-1.345683e-01 0.000000e+00
-1.343183e-01 0.000000e+00
-1.340683e-01 0.000000e+00
-1.338183e-01 0.000000e+00
-1.335683e-01 0.000000e+00
-1.333183e-01 0.000000e+00
-1.330683e-01 0.000000e+00
-1.328183e-01 0.000000e+00
-1.325683e-01 0.000000e+00
-1.323183e-01 0.000000e+00
-1.320683e-01 0.000000e+00
-1.318183e-01 0.000000e+00
-1.315683e-01 0.000000e+00
-1.313183e-01 0.000000e+00
-1.310683e-01 0.000000e+00
-1.308183e-01 0.000000e+00
-1.305683e-01 0.000000e+00
-1.303183e-01 0.000000e+00
-1.300683e-01 0.000000e+00
-1.298183e-01 0.000000e+00
-1.295683e-01 0.000000e+00
-1.293183e-01 0.000000e+00
-1.290683e-01 0.000000e+00
-1.288183e-01 0.000000e+00
-1.285683e-01 0.000000e+00
-1.283183e-01 0.000000e+00
-1.280683e-01 0.000000e+00
-1.278183e-01 0.000000e+00
-1.275683e-01 0.000000e+00
-1.273183e-01 0.000000e+00
-1.270683e-01 0.000000e+00
-1.268183e-01 0.000000e+00
-1.265683e-01 0.000000e+00
-1.263183e-01 0.000000e+00
-1.260683e-01 0.000000e+00
-1.258183e-01 0.000000e+00
-1.255683e-01 0.000000e+00
-1.253183e-01 0.000000e+00
-1.250683e-01 0.000000e+00
-1.248183e-01 0.000000e+00
-1.245683e-01 0.000000e+00
-1.243183e-01 0.000000e+00
-1.240683e-01 0.000000e+00
-1.238183e-01 0.000000e+00
-1.235683e-01 0.000000e+00
-1.233183e-01 0.000000e+00
-1.230683e-01 0.000000e+00
-1.228183e-01 0.000000e+00
-1.225683e-01 0.000000e+00
-1.223183e-01 0.000000e+00
-1.220683e-01 0.000000e+00
-1.218183e-01 0.000000e+00
-1.215683e-01 0.000000e+00
-1.213183e-01 0.000000e+00
-1.210683e-01 0.000000e+00
-1.208183e-01 0.000000e+00
-1.205683e-01 0.000000e+00
-1.203183e-01 0.000000e+00
-1.200683e-01 0.000000e+00
-1.198183e-01 0.000000e+00
-1.195683e-01 0.000000e+00
-1.193183e-01 0.000000e+00
-1.190683e-01 0.000000e+00
-1.188183e-01 0.000000e+00
-1.185683e-01 0.000000e+00
-1.183183e-01 0.000000e+00
-1.180683e-01 0.000000e+00
-1.178183e-01 0.000000e+00
-1.175683e-01 0.000000e+00
-1.173183e-01 0.000000e+00
-1.170683e-01 0.000000e+00
-1.168183e-01 0.000000e+00
-1.165683e-01 0.000000e+00
-1.163183e-01 0.000000e+00
-1.160683e-01 0.000000e+00
-1.158183e-01 0.000000e+00
-1.155683e-01 0.000000e+00
-1.153183e-01 0.000000e+00
-1.150683e-01 0.000000e+00
-1.148183e-01 0.000000e+00
-1.145683e-01 0.000000e+00
-1.143183e-01 0.000000e+00
-1.140683e-01 0.000000e+00
-1.138183e-01 0.000000e+00
-1.135683e-01 0.000000e+00
-1.133183e-01 0.000000e+00
-1.130683e-01 0.000000e+00
-1.128183e-01 0.000000e+00
-1.125683e-01 0.000000e+00
-1.123183e-01 0.000000e+00
-1.120683e-01 0.000000e+00
-1.118183e-01 0.000000e+00
-1.115683e-01 0.000000e+00
-1.113183e-01 0.000000e+00
-1.110683e-01 0.000000e+00
-1.108183e-01 0.000000e+00
-1.105683e-01 0.000000e+00
-1.103183e-01 0.000000e+00
-1.100683e-01 0.000000e+00
-1.098183e-01 0.000000e+00
-1.095683e-01 0.000000e+00
-1.093183e-01 0.000000e+00
-1.090683e-01 0.000000e+00
-1.088183e-01 0.000000e+00
-1.085683e-01 0.000000e+00
-1.083183e-01 0.000000e+00
-1.080683e-01 0.000000e+00
-1.078183e-01 0.000000e+00
-1.075683e-01 0.000000e+00
-1.073183e-01 0.000000e+00
-1.070683e-01 0.000000e+00
-1.068183e-01 0.000000e+00
-1.065683e-01 0.000000e+00
-1.063183e-01 0.000000e+00
-1.060683e-01 0.000000e+00
-1.058183e-01 0.000000e+00
-1.055683e-01 0.000000e+00
-1.053183e-01 0.000000e+00
-1.050683e-01 0.000000e+00
-1.048183e-01 0.000000e+00
-1.045683e-01 0.000000e+00
-1.043183e-01 0.000000e+00
-1.040683e-01 0.000000e+00
-1.038183e-01 0.000000e+00
-1.035683e-01 0.000000e+00
-1.033183e-01 0.000000e+00
-1.030683e-01 0.000000e+00
-1.028183e-01 0.000000e+00
-1.025683e-01 0.000000e+00
-1.023183e-01 0.000000e+00
-1.020683e-01 0.000000e+00
-1.018183e-01 0.000000e+00
-1.015683e-01 0.000000e+00
-1.013183e-01 0.000000e+00
-1.010683e-01 0.000000e+00
-1.008183e-01 0.000000e+00
-1.005683e-01 0.000000e+00
-1.003183e-01 0.000000e+00
-1.000683e-01 0.000000e+00
-9.981829e-02 0.000000e+00
-9.956829e-02 0.000000e+00
-9.931830e-02 0.000000e+00
-9.906829e-02 0.000000e+00
-9.881829e-02 0.000000e+00
-9.856829e-02 0.000000e+00
-9.831829e-02 0.000000e+00
-9.806830e-02 0.000000e+00
-9.781829e-02 0.000000e+00
-9.756829e-02 0.000000e+00
-9.731829e-02 0.000000e+00
-9.706829e-02 0.000000e+00
-9.681829e-02 0.000000e+00
-9.656829e-02 0.000000e+00
-9.631829e-02 0.000000e+00
-9.606829e-02 0.000000e+00
-9.581830e-02 0.000000e+00
-9.556829e-02 0.000000e+00
-9.531829e-02 0.000000e+00
-9.506829e-02 0.000000e+00
-9.481829e-02 0.000000e+00
-9.456830e-02 0.000000e+00
-9.431829e-02 0.000000e+00
-9.406829e-02 0.000000e+00
-9.381829e-02 0.000000e+00
-9.356830e-02 0.000000e+00
-9.331829e-02 0.000000e+00
-9.306829e-02 0.000000e+00
-9.281829e-02 0.000000e+00
-9.256829e-02 0.000000e+00
-9.231830e-02 0.000000e+00
-9.206829e-02 0.000000e+00
-9.181829e-02 0.000000e+00
-9.156829e-02 0.000000e+00
-9.131829e-02 0.000000e+00
-9.106829e-02 0.000000e+00
-9.081829e-02 0.000000e+00
-9.056829e-02 0.000000e+00
-9.031829e-02 0.000000e+00
-9.006830e-02 0.000000e+00
-8.981829e-02 0.000000e+00
-8.956829e-02 0.000000e+00
-8.931829e-02 0.000000e+00
-8.906829e-02 0.000000e+00
-8.881830e-02 0.000000e+00
-8.856829e-02 0.000000e+00
-8.831829e-02 0.000000e+00
-8.806829e-02 0.000000e+00
-8.781829e-02 0.000000e+00
-8.756829e-02 0.000000e+00
-8.731829e-02 0.000000e+00
-8.706829e-02 0.000000e+00
-8.681829e-02 0.000000e+00
-8.656830e-02 0.000000e+00
-8.631829e-02 0.000000e+00
-8.606829e-02 0.000000e+00
-8.581829e-02 0.000000e+00
-8.556829e-02 0.000000e+00
-8.531829e-02 0.000000e+00
-8.506829e-02 0.000000e+00
-8.481829e-02 0.000000e+00
-8.456829e-02 0.000000e+00
-8.431830e-02 0.000000e+00
-8.406829e-02 0.000000e+00
-8.381829e-02 0.000000e+00
-8.356829e-02 0.000000e+00
-8.331829e-02 0.000000e+00
-8.306830e-02 0.000000e+00
-8.281829e-02 0.000000e+00
-8.256829e-02 0.000000e+00
-8.231829e-02 0.000000e+00
-8.206829e-02 0.000000e+00
-8.181829e-02 0.000000e+00
-8.156829e-02 0.000000e+00
-8.131829e-02 0.000000e+00
-8.106829e-02 0.000000e+00
-8.081830e-02 0.000000e+00
-8.056829e-02 0.000000e+00
-8.031829e-02 0.000000e+00
-8.006829e-02 0.000000e+00
-7.981829e-02 0.000000e+00
-7.956829e-02 0.000000e+00
-7.931829e-02 0.000000e+00
-7.906829e-02 0.000000e+00
-7.881829e-02 0.000000e+00
-7.856829e-02 0.000000e+00
-7.831829e-02 0.000000e+00
-7.806829e-02 0.000000e+00
-7.781829e-02 0.000000e+00
-7.756829e-02 0.000000e+00
-7.731830e-02 0.000000e+00
-7.706829e-02 0.000000e+00
-7.681829e-02 0.000000e+00
-7.656829e-02 0.000000e+00
-7.631829e-02 0.000000e+00
-7.606829e-02 0.000000e+00
-7.581829e-02 0.000000e+00
-7.556829e-02 0.000000e+00
-7.531829e-02 0.000000e+00
-7.506829e-02 0.000000e+00
-7.481829e-02 0.000000e+00
-7.456829e-02 0.000000e+00
-7.431829e-02 0.000000e+00
-7.406829e-02 0.000000e+00
-7.381829e-02 0.000000e+00
-7.356829e-02 0.000000e+00
-7.331829e-02 0.000000e+00
-7.306829e-02 0.000000e+00
-7.281829e-02 0.000000e+00
-7.256829e-02 0.000000e+00
-7.231829e-02 0.000000e+00
-7.206829e-02 0.000000e+00
-7.181829e-02 0.000000e+00
-7.156829e-02 0.000000e+00
-7.131829e-02 0.000000e+00
-7.106829e-02 0.000000e+00
-7.081829e-02 0.000000e+00
-7.056829e-02 0.000000e+00
-7.031829e-02 0.000000e+00
-7.006829e-02 0.000000e+00
-6.981829e-02 0.000000e+00
-6.956829e-02 0.000000e+00
-6.931829e-02 0.000000e+00
-6.906829e-02 0.000000e+00
-6.881829e-02 0.000000e+00
-6.856829e-02 0.000000e+00
-6.831829e-02 0.000000e+00
-6.806829e-02 0.000000e+00
-6.781829e-02 0.000000e+00
-6.756829e-02 0.000000e+00
-6.731829e-02 0.000000e+00
-6.706829e-02 0.000000e+00
-6.681829e-02 0.000000e+00
-6.656829e-02 0.000000e+00
-6.631829e-02 0.000000e+00
-6.606829e-02 0.000000e+00
-6.581829e-02 0.000000e+00
-6.556829e-02 0.000000e+00
-6.531829e-02 0.000000e+00
-6.506829e-02 0.000000e+00
-6.481829e-02 0.000000e+00
-6.456829e-02 0.000000e+00
-6.431829e-02 0.000000e+00
-6.406829e-02 0.000000e+00
-6.381829e-02 0.000000e+00
-6.356829e-02 0.000000e+00
-6.331829e-02 0.000000e+00
-6.306829e-02 0.000000e+00
-6.281829e-02 0.000000e+00
-6.256829e-02 0.000000e+00
-6.231829e-02 0.000000e+00
-6.206829e-02 0.000000e+00
-6.181829e-02 0.000000e+00
-6.156829e-02 0.000000e+00
-6.131829e-02 0.000000e+00
-6.106829e-02 0.000000e+00
-6.081829e-02 0.000000e+00
-6.056829e-02 0.000000e+00
-6.031829e-02 0.000000e+00
-6.006829e-02 0.000000e+00
-5.981829e-02 0.000000e+00
-5.956829e-02 0.000000e+00
-5.931829e-02 0.000000e+00
-5.906829e-02 0.000000e+00
-5.881829e-02 0.000000e+00
-5.856829e-02 0.000000e+00
-5.831829e-02 0.000000e+00
-5.806829e-02 0.000000e+00
-5.781829e-02 0.000000e+00
-5.756829e-02 0.000000e+00
-5.731829e-02 0.000000e+00
-5.706829e-02 0.000000e+00
-5.681829e-02 0.000000e+00
-5.656829e-02 0.000000e+00
-5.631829e-02 0.000000e+00
-5.606829e-02 0.000000e+00
-5.581829e-02 0.000000e+00
-5.556829e-02 0.000000e+00
-5.531829e-02 0.000000e+00
-5.506829e-02 0.000000e+00
-5.481829e-02 0.000000e+00
-5.456829e-02 0.000000e+00
-5.431829e-02 0.000000e+00
-5.406829e-02 0.000000e+00
-5.381829e-02 0.000000e+00
-5.356829e-02 0.000000e+00
-5.331829e-02 0.000000e+00
-5.306829e-02 0.000000e+00
-5.281829e-02 0.000000e+00
-5.256829e-02 0.000000e+00
-5.231829e-02 0.000000e+00
-5.206829e-02 0.000000e+00
-5.181829e-02 0.000000e+00
-5.156829e-02 0.000000e+00
-5.131829e-02 0.000000e+00
-5.106829e-02 0.000000e+00
-5.081829e-02 0.000000e+00
-5.056829e-02 0.000000e+00
-5.031829e-02 0.000000e+00
-5.006829e-02 0.000000e+00
-4.981829e-02 0.000000e+00
-4.956829e-02 0.000000e+00
-4.931829e-02 0.000000e+00
-4.906829e-02 0.000000e+00
-4.881829e-02 0.000000e+00
-4.856829e-02 0.000000e+00
-4.831829e-02 0.000000e+00
-4.806829e-02 0.000000e+00
-4.781829e-02 0.000000e+00
-4.756829e-02 0.000000e+00
-4.731829e-02 0.000000e+00
-4.706829e-02 0.000000e+00
-4.681829e-02 0.000000e+00
-4.656829e-02 0.000000e+00
-4.631829e-02 0.000000e+00
-4.606829e-02 0.000000e+00
-4.581829e-02 0.000000e+00
-4.556829e-02 0.000000e+00
-4.531829e-02 0.000000e+00
-4.506829e-02 0.000000e+00
-4.481829e-02 0.000000e+00
-4.456829e-02 0.000000e+00
-4.431829e-02 0.000000e+00
-4.406829e-02 0.000000e+00
-4.381829e-02 0.000000e+00
-4.356829e-02 0.000000e+00
-4.331829e-02 0.000000e+00
-4.306829e-02 0.000000e+00
-4.281829e-02 0.000000e+00
-4.256829e-02 0.000000e+00
-4.231829e-02 0.000000e+00
-4.206829e-02 0.000000e+00
-4.181829e-02 0.000000e+00
-4.156829e-02 0.000000e+00
-4.131829e-02 0.000000e+00
-4.106829e-02 0.000000e+00
-4.081829e-02 0.000000e+00
-4.056829e-02 0.000000e+00
-4.031829e-02 0.000000e+00
-4.006829e-02 0.000000e+00
-3.981829e-02 0.000000e+00
-3.956829e-02 0.000000e+00
-3.931829e-02 0.000000e+00
-3.906829e-02 0.000000e+00
-3.881829e-02 0.000000e+00
-3.856829e-02 0.000000e+00
-3.831829e-02 0.000000e+00
-3.806829e-02 0.000000e+00
-3.781829e-02 0.000000e+00
-3.756829e-02 0.000000e+00
-3.731829e-02 0.000000e+00
-3.706829e-02 0.000000e+00
-3.681829e-02 0.000000e+00
-3.656829e-02 0.000000e+00
-3.631829e-02 0.000000e+00
-3.606829e-02 0.000000e+00
-3.581829e-02 0.000000e+00
-3.556829e-02 0.000000e+00
-3.531829e-02 0.000000e+00
-3.506829e-02 0.000000e+00
-3.481829e-02 0.000000e+00
-3.456829e-02 0.000000e+00
-3.431829e-02 0.000000e+00
-3.406829e-02 0.000000e+00
-3.381829e-02 0.000000e+00
-3.356829e-02 0.000000e+00
-3.331829e-02 0.000000e+00
-3.306829e-02 0.000000e+00
-3.281829e-02 0.000000e+00
-3.256829e-02 0.000000e+00
-3.231829e-02 0.000000e+00
-3.206829e-02 0.000000e+00
-3.181829e-02 0.000000e+00
-3.156829e-02 0.000000e+00
-3.131829e-02 0.000000e+00
-3.106829e-02 0.000000e+00
-3.081829e-02 0.000000e+00
-3.056829e-02 0.000000e+00
-3.031829e-02 0.000000e+00
-3.006829e-02 0.000000e+00
-2.981829e-02 0.000000e+00
-2.956829e-02 0.000000e+00
-2.931829e-02 0.000000e+00
-2.906829e-02 0.000000e+00
-2.881829e-02 0.000000e+00
-2.856829e-02 0.000000e+00
-2.831829e-02 0.000000e+00
-2.806829e-02 0.000000e+00
-2.781828e-02 0.000000e+00
-2.756829e-02 0.000000e+00
-2.731829e-02 0.000000e+00
-2.706829e-02 0.000000e+00
-2.681829e-02 0.000000e+00
-2.656829e-02 0.000000e+00
-2.631829e-02 0.000000e+00
-2.606829e-02 0.000000e+00
-2.581829e-02 0.000000e+00
-2.556829e-02 0.000000e+00
-2.531829e-02 0.000000e+00
-2.506829e-02 0.000000e+00
-2.481829e-02 0.000000e+00
-2.456829e-02 0.000000e+00
-2.431829e-02 0.000000e+00
-2.406829e-02 0.000000e+00
-2.381829e-02 0.000000e+00
-2.356829e-02 0.000000e+00
-2.331829e-02 0.000000e+00
-2.306829e-02 0.000000e+00
-2.281829e-02 0.000000e+00
-2.256829e-02 0.000000e+00
-2.231829e-02 0.000000e+00
-2.206829e-02 0.000000e+00
-2.181829e-02 0.000000e+00
-2.156829e-02 0.000000e+00
-2.131829e-02 0.000000e+00
-2.106829e-02 0.000000e+00
-2.081829e-02 0.000000e+00
-2.056829e-02 0.000000e+00
-2.031828e-02 0.000000e+00
-2.006829e-02 0.000000e+00
-1.981829e-02 0.000000e+00
-1.956829e-02 0.000000e+00
-1.931829e-02 0.000000e+00
-1.906829e-02 0.000000e+00
-1.881829e-02 0.000000e+00
-1.856828e-02 0.000000e+00
-1.831829e-02 0.000000e+00
-1.806829e-02 0.000000e+00
-1.781829e-02 0.000000e+00
-1.756829e-02 0.000000e+00
-1.731829e-02 0.000000e+00
-1.706829e-02 0.000000e+00
-1.681828e-02 0.000000e+00
-1.656829e-02 0.000000e+00
-1.631829e-02 0.000000e+00
-1.606829e-02 0.000000e+00
-1.581829e-02 0.000000e+00
-1.556829e-02 0.000000e+00
-1.531829e-02 0.000000e+00
-1.506829e-02 0.000000e+00
-1.481829e-02 0.000000e+00
-1.456829e-02 0.000000e+00
-1.431829e-02 0.000000e+00
-1.406829e-02 0.000000e+00
-1.381829e-02 0.000000e+00
-1.356828e-02 0.000000e+00
-1.331829e-02 0.000000e+00
-1.306829e-02 0.000000e+00
-1.281829e-02 0.000000e+00
-1.256830e-02 0.000000e+00
-1.231828e-02 0.000000e+00
-1.206829e-02 0.000000e+00
-1.181829e-02 0.000000e+00
-1.156829e-02 0.000000e+00
-1.131828e-02 0.000000e+00
-1.106828e-02 0.000000e+00
-1.081829e-02 0.000000e+00
-1.056829e-02 0.000000e+00
-1.031829e-02 0.000000e+00
-1.006828e-02 0.000000e+00
-9.818286e-03 0.000000e+00
-9.568289e-03 0.000000e+00
-9.318292e-03 0.000000e+00
-9.068280e-03 0.000000e+00
-8.818284e-03 0.000000e+00
-8.568287e-03 0.000000e+00
-8.318290e-03 0.000000e+00
-8.068293e-03 0.000000e+00
-7.818282e-03 0.000000e+00
-7.568285e-03 0.000000e+00
-7.318288e-03 0.000000e+00
-7.068291e-03 0.000000e+00
-6.818295e-03 0.000000e+00
-6.568283e-03 0.000000e+00
-6.318286e-03 0.000000e+00
-6.068289e-03 0.000000e+00
-5.818292e-03 0.000000e+00
-5.568281e-03 0.000000e+00
-5.318284e-03 0.000000e+00
-5.068287e-03 0.000000e+00
-4.818290e-03 0.000000e+00
-4.568294e-03 0.000000e+00
-4.318282e-03 0.000000e+00
-4.068285e-03 0.000000e+00
-3.818288e-03 0.000000e+00
-3.568292e-03 0.000000e+00
-3.318280e-03 0.000000e+00
-3.068283e-03 0.000000e+00
-2.818286e-03 0.000000e+00
-2.568290e-03 0.000000e+00
-2.318293e-03 0.000000e+00
-2.068281e-03 0.000000e+00
-1.818284e-03 0.000000e+00
-1.568288e-03 0.000000e+00
-1.318291e-03 0.000000e+00
-1.068294e-03 0.000000e+00
-8.182824e-04 0.000000e+00
-5.682856e-04 0.000000e+00
-3.182888e-04 0.000000e+00
-6.829202e-05 0.000000e+00
1.817197e-04 0.000000e+00
4.317164e-04 0.000000e+00
6.817132e-04 0.000000e+00
9.317100e-04 0.000000e+00
1.181707e-03 0.000000e+00
1.431718e-03 0.000000e+00
1.681715e-03 0.000000e+00
1.931712e-03 0.000000e+00
2.181709e-03 0.000000e+00
2.431706e-03 0.000000e+00
2.681717e-03 0.000000e+00
2.931714e-03 0.000000e+00
3.181711e-03 0.000000e+00
3.431708e-03 0.000000e+00
3.681719e-03 0.000000e+00
3.931716e-03 0.000000e+00
4.181713e-03 0.000000e+00
4.431710e-03 0.000000e+00
4.681706e-03 0.000000e+00
4.931718e-03 0.000000e+00
5.181715e-03 0.000000e+00
5.431712e-03 0.000000e+00
5.681708e-03 0.000000e+00
5.931720e-03 0.000000e+00
6.181717e-03 0.000000e+00
6.431714e-03 0.000000e+00
6.681710e-03 0.000000e+00
6.931707e-03 0.000000e+00
7.181719e-03 0.000000e+00
7.431716e-03 0.000000e+00
7.681713e-03 0.000000e+00
7.931709e-03 0.000000e+00
8.181706e-03 0.000000e+00
8.431718e-03 0.000000e+00
8.681715e-03 0.000000e+00
8.931711e-03 0.000000e+00
9.181708e-03 0.000000e+00
9.431720e-03 0.000000e+00
9.681717e-03 0.000000e+00
9.931713e-03 0.000000e+00
1.018171e-02 0.000000e+00
1.043171e-02 0.000000e+00
1.068172e-02 0.000000e+00
1.093172e-02 0.000000e+00
1.118171e-02 0.000000e+00
1.143171e-02 0.000000e+00
1.168172e-02 0.000000e+00
1.193172e-02 0.000000e+00
1.218171e-02 0.000000e+00
1.243171e-02 0.000000e+00
1.268171e-02 0.000000e+00
1.293172e-02 0.000000e+00
1.318172e-02 0.000000e+00
1.343171e-02 0.000000e+00
1.368171e-02 0.000000e+00
1.393171e-02 0.000000e+00
1.418172e-02 0.000000e+00
1.443172e-02 0.000000e+00
1.468171e-02 0.000000e+00
1.493171e-02 0.000000e+00
1.518172e-02 0.000000e+00
1.543172e-02 0.000000e+00
1.568171e-02 0.000000e+00
1.593171e-02 0.000000e+00
1.618171e-02 0.000000e+00
1.643172e-02 0.000000e+00
1.668172e-02 0.000000e+00
1.693171e-02 0.000000e+00
1.718171e-02 0.000000e+00
1.743171e-02 0.000000e+00
1.768172e-02 0.000000e+00
1.793171e-02 0.000000e+00
1.818171e-02 0.000000e+00
1.843171e-02 0.000000e+00
1.868172e-02 0.000000e+00
1.893172e-02 0.000000e+00
1.918171e-02 0.000000e+00
1.943171e-02 0.000000e+00
1.968171e-02 0.000000e+00
1.993172e-02 0.000000e+00
2.018172e-02 0.000000e+00
2.043171e-02 0.000000e+00
2.068171e-02 0.000000e+00
2.093172e-02 0.000000e+00
2.118172e-02 0.000000e+00
2.143171e-02 0.000000e+00
2.168171e-02 0.000000e+00
2.193171e-02 0.000000e+00
2.218172e-02 0.000000e+00
2.243172e-02 0.000000e+00
2.268171e-02 0.000000e+00
2.293171e-02 0.000000e+00
2.318171e-02 0.000000e+00
2.343172e-02 0.000000e+00
2.368172e-02 0.000000e+00
2.393171e-02 0.000000e+00
2.418171e-02 0.000000e+00
2.443172e-02 0.000000e+00
2.468172e-02 0.000000e+00
2.493171e-02 0.000000e+00
2.518171e-02 0.000000e+00
2.543171e-02 0.000000e+00
2.568172e-02 0.000000e+00
2.593172e-02 0.000000e+00
2.618171e-02 0.000000e+00
2.643171e-02 0.000000e+00
2.668172e-02 0.000000e+00
2.693172e-02 0.000000e+00
2.718171e-02 0.000000e+00
2.743171e-02 0.000000e+00
2.768171e-02 0.000000e+00
2.793172e-02 0.000000e+00
2.818172e-02 0.000000e+00
2.843171e-02 0.000000e+00
2.868171e-02 0.000000e+00
2.893171e-02 0.000000e+00
2.918172e-02 0.000000e+00
2.943172e-02 0.000000e+00
2.968171e-02 0.000000e+00
2.993171e-02 0.000000e+00
3.018172e-02 0.000000e+00
3.043172e-02 0.000000e+00
3.068171e-02 0.000000e+00
3.093171e-02 0.000000e+00
3.118171e-02 0.000000e+00
3.143172e-02 0.000000e+00
3.168172e-02 0.000000e+00
3.193171e-02 0.000000e+00
3.218171e-02 0.000000e+00
3.243172e-02 0.000000e+00
3.268172e-02 0.000000e+00
3.293172e-02 0.000000e+00
3.318171e-02 0.000000e+00
3.343171e-02 0.000000e+00
3.368172e-02 0.000000e+00
3.393172e-02 0.000000e+00
3.418171e-02 0.000000e+00
3.443171e-02 0.000000e+00
3.468171e-02 0.000000e+00
3.493172e-02 0.000000e+00
3.518172e-02 0.000000e+00
3.543171e-02 0.000000e+00
3.568171e-02 0.000000e+00
3.593172e-02 0.000000e+00
3.618172e-02 0.000000e+00
3.643171e-02 0.000000e+00
3.668171e-02 0.000000e+00
3.693171e-02 0.000000e+00
3.718172e-02 0.000000e+00
3.743172e-02 0.000000e+00
3.768171e-02 0.000000e+00
3.793171e-02 0.000000e+00
3.818171e-02 0.000000e+00
3.843172e-02 0.000000e+00
3.868172e-02 0.000000e+00
3.893171e-02 0.000000e+00
3.918171e-02 0.000000e+00
3.943172e-02 0.000000e+00
3.968172e-02 0.000000e+00
3.993171e-02 0.000000e+00
4.018171e-02 0.000000e+00
4.043171e-02 0.000000e+00
4.068172e-02 0.000000e+00
4.093172e-02 0.000000e+00
4.118171e-02 0.000000e+00
4.143171e-02 0.000000e+00
4.168172e-02 0.000000e+00
4.193172e-02 0.000000e+00
4.218172e-02 0.000000e+00
4.243171e-02 0.000000e+00
4.268171e-02 0.000000e+00
4.293172e-02 0.000000e+00
4.318172e-02 0.000000e+00
4.343171e-02 0.000000e+00
4.368171e-02 0.000000e+00
4.393171e-02 0.000000e+00
4.418172e-02 0.000000e+00
4.443172e-02 0.000000e+00
4.468171e-02 0.000000e+00
4.493171e-02 0.000000e+00
4.518172e-02 0.000000e+00
4.543172e-02 0.000000e+00
4.568172e-02 0.000000e+00
4.593171e-02 0.000000e+00
4.618171e-02 0.000000e+00
4.643172e-02 0.000000e+00
4.668172e-02 0.000000e+00
4.693171e-02 0.000000e+00
4.718171e-02 0.000000e+00
4.743172e-02 0.000000e+00
4.768172e-02 -1.401298e-45
4.793172e-02 -2.802597e-45
4.818171e-02 -4.203895e-45
4.843171e-02 -2.802597e-45
4.868172e-02 1.401298e-45
4.893172e-02 8.407791e-45
4.918171e-02 1.261169e-44
4.943171e-02 1.121039e-44
4.968171e-02 4.203895e-45
4.993172e-02 -8.407791e-45
5.018172e-02 -2.382207e-44
5.043171e-02 -3.643376e-44
5.068171e-02 -4.063766e-44
5.093172e-02 -2.942727e-44
5.118172e-02 -1.401298e-45
5.143172e-02 3.783506e-44
5.168171e-02 7.707142e-44
5.193171e-02 1.022948e-43
5.218172e-02 9.668959e-44
5.243172e-02 5.465064e-44
5.268171e-02 -2.242078e-44
5.293171e-02 -1.177091e-43
5.318171e-02 -2.031883e-43
5.343172e-02 -2.410233e-43
5.368172e-02 -2.045896e-43
5.393171e-02 -8.127531e-44
5.418171e-02 1.149065e-43
5.443172e-02 3.363116e-43
5.468172e-02 5.100726e-43
5.493172e-02 5.563155e-43
5.518171e-02 4.147843e-43
5.543171e-02 7.006492e-44
5.568172e-02 -4.189882e-43
5.593172e-02 -9.192518e-43
5.618171e-02 -1.251360e-42
5.643171e-02 -1.235945e-42
5.668172e-02 -7.595038e-43
5.693172e-02 1.569454e-43
5.718172e-02 1.327030e-42
5.743171e-02 2.401826e-42
5.768171e-02 2.956740e-42
5.793172e-02 2.612020e-42
5.818172e-02 1.193906e-42
5.843171e-02 -1.136453e-42
5.868171e-02 -3.828347e-42
5.893171e-02 -6.012972e-42
5.918172e-02 -6.719226e-42
5.943172e-02 -5.198817e-42
5.968171e-02 -1.273780e-42
5.993171e-02 4.411288e-42
6.018172e-02 1.035279e-41
6.043172e-02 1.446420e-41
6.068172e-02 1.463937e-41
6.093171e-02 9.531632e-42
6.118171e-02 -7.174648e-43
6.143172e-02 -1.403821e-41
6.168172e-02 -2.656301e-41
6.193171e-02 -3.346721e-41
6.218171e-02 -3.041658e-41
6.243172e-02 -1.531199e-41
6.268172e-02 1.021687e-41
6.293172e-02 4.022007e-41
6.318171e-02 6.520662e-41
6.343171e-02 7.447901e-41
6.368172e-02 5.965468e-41
6.393172e-02 1.845790e-41
6.418172e-02 -4.251119e-41
6.443171e-02 -1.073647e-40
6.468171e-02 -1.537743e-40
6.493172e-02 -1.590726e-40
6.518172e-02 -1.083988e-40
6.543171e-02 -2.553166e-42
6.568171e-02 1.373735e-40
6.593172e-02 2.713222e-40
6.618172e-02 3.488925e-40
6.643172e-02 3.244328e-40
6.668171e-02 1.750950e-40
6.693171e-02 -8.379344e-41
6.718172e-02 -3.924729e-40
6.743172e-02 -6.546866e-40
6.768171e-02 -7.613311e-40
6.793171e-02 -6.260469e-40
6.818172e-02 -2.234819e-40
6.843172e-02 3.828263e-40
6.868172e-02 1.036269e-39
6.893171e-02 1.515448e-39
6.918171e-02 1.594533e-39
6.943172e-02 1.123567e-39
6.968172e-02 1.056845e-40
6.993172e-02 -1.257706e-39
7.018171e-02 -2.579806e-39
7.043171e-02 -3.372223e-39
7.068172e-02 -3.190702e-39
7.093172e-02 -1.808641e-39
7.118171e-02 6.360143e-40
7.143171e-02 3.581589e-39
7.168172e-02 6.118771e-39
7.193172e-02 7.214769e-39
7.218172e-02 6.048577e-39
7.243171e-02 2.369286e-39
7.268171e-02 -3.245075e-39
7.293172e-02 -9.350897e-39
7.318172e-02 -1.390326e-38
7.343172e-02 -1.481436e-38
7.368171e-02 -1.069117e-38
7.393171e-02 -1.539158e-39
7.418172e-02 1.083135e-38
7.443172e-02 2.292904e-38
7.468171e-02 3.034564e-38
7.493171e-02 2.907110e-38
7.518172e-02 1.704689e-38
7.543172e-02 -4.532075e-39
7.568172e-02 -3.070732e-38
7.593171e-02 -5.344977e-38
7.618171e-02 -6.365292e-38
7.643172e-02 -5.408389e-38
7.668172e-02 -2.250765e-38
7.693172e-02 2.608672e-38
7.718171e-02 7.921203e-38
7.743172e-02 1.192152e-37
7.768172e-02 1.281201e-37
7.793172e-02 9.395785e-38
7.818171e-02 1.673892e-38
7.843171e-02 -8.817249e-38
7.868172e-02 -1.912207e-37
7.893172e-02 -2.552168e-37
7.918172e-02 -2.464631e-37
7.943171e-02 -1.477437e-37
7.968171e-02 3.093819e-38
7.993172e-02 2.483408e-37
8.018172e-02 4.379879e-37
8.043171e-02 5.248369e-37
8.068171e-02 4.496178e-37
8.093172e-02 1.942835e-37
8.118172e-02 -2.002008e-37
8.143172e-02 -6.321806e-37
8.168171e-02 -9.587783e-37
8.193171e-02 -1.035367e-36
8.218172e-02 -7.664736e-37
8.243172e-02 -1.531109e-37
8.268172e-02 6.812875e-37
8.293171e-02 1.501381e-36
8.318172e-02 2.013049e-36
8.343172e-02 1.951796e-36
8.368172e-02 1.184553e-36
8.393171e-02 -2.076861e-37
8.418171e-02 -1.900921e-36
8.443172e-02 -3.377616e-36
8.468172e-02 -4.058077e-36
8.493172e-02 -3.489063e-36
8.518171e-02 -1.537993e-36
8.543171e-02 1.474634e-36
8.568172e-02 4.768031e-36
8.593172e-02 7.254970e-36
8.618172e-02 7.844913e-36
8.643171e-02 5.828544e-36
8.668172e-02 1.229043e-36
8.693172e-02 -5.013059e-36
8.718172e-02 -1.113071e-35
8.743171e-02 -1.493711e-35
8.768171e-02 -1.448746e-35
8.793172e-02 -8.828341e-36
8.818172e-02 1.407340e-36
8.843172e-02 1.381027e-35
8.868171e-02 2.458219e-35
8.893172e-02 2.951391e-35
8.918172e-02 2.536166e-35
8.943172e-02 1.123900e-35
8.968171e-02 -1.046306e-35
8.993171e-02 -3.407379e-35
9.018172e-02 -5.179535e-35
9.043172e-02 -5.590025e-35
9.068172e-02 -4.146685e-35
9.093171e-02 -8.826442e-36
9.118171e-02 3.521383e-35
9.143172e-02 7.811465e-35
9.168172e-02 1.045532e-34
9.193172e-02 1.010984e-34
9.218171e-02 6.140466e-35
9.243172e-02 -9.771515e-36
9.268172e-02 -9.544206e-35
9.293172e-02 -1.692692e-34
9.318171e-02 -2.024536e-34
9.343171e-02 -1.732142e-34
9.368172e-02 -7.617727e-35
9.393172e-02 7.164407e-35
9.418172e-02 2.312310e-34
9.443171e-02 3.497499e-34
9.468171e-02 3.756199e-34
9.493172e-02 2.768767e-34
9.518172e-02 5.720837e-35
9.543172e-02 -2.365344e-34
9.568171e-02 -5.200895e-34
9.593172e-02 -6.920436e-34
9.618172e-02 -6.650698e-34
9.643172e-02 -3.998937e-34
9.668171e-02 6.923680e-35
9.693171e-02 6.285698e-34
9.718172e-02 1.105200e-33
9.743172e-02 1.313043e-33
9.768172e-02 1.114573e-33
9.793171e-02 4.805672e-34
9.818172e-02 -4.735174e-34
9.843172e-02 -1.492893e-33
9.868172e-02 -2.238699e-33
9.893171e-02 -2.385894e-33
9.918171e-02 -1.739820e-33
9.943172e-02 -3.352357e-34
9.968172e-02 1.520936e-33
9.993172e-02 3.291526e-33
1.001817e-01 4.341252e-33
1.004317e-01 4.134450e-33
1.006817e-01 2.445072e-33
1.009317e-01 -4.913693e-34
1.011817e-01 -3.950569e-33
1.014317e-01 -6.855878e-33
1.016817e-01 -8.069484e-33
1.019317e-01 -6.773359e-33
1.021817e-01 -2.828453e-33
1.024317e-01 3.017987e-33
1.026817e-01 9.184635e-33
1.029317e-01 1.361032e-32
1.031817e-01 1.435749e-32
1.034317e-01 1.031316e-32
1.036817e-01 1.766272e-33
1.039317e-01 -9.367730e-33
1.041817e-01 -1.983483e-32
1.044317e-01 -2.586129e-32
1.046817e-01 -2.434150e-32
1.049317e-01 -1.406742e-32
1.051817e-01 3.417462e-33
1.054317e-01 2.372220e-32
1.056817e-01 4.047713e-32
1.059317e-01 4.708653e-32
1.061817e-01 3.895920e-32
1.064317e-01 1.555248e-32
1.066817e-01 -1.852102e-32
1.069317e-01 -5.391984e-32
1.071817e-01 -7.873307e-32
1.074317e-01 -8.201617e-32
1.076817e-01 -5.779008e-32
1.079317e-01 -8.223435e-33
1.081817e-01 5.528662e-32
1.084317e-01 1.139807e-31
1.086817e-01 1.465650e-31
1.089317e-01 1.359932e-31
1.091817e-01 7.629449e-32
1.094317e-01 -2.290242e-32
1.096817e-01 -1.362245e-31
1.099317e-01 -2.278109e-31
1.101817e-01 -2.613524e-31
1.104317e-01 -2.125040e-31
1.106817e-01 -7.991071e-32
1.109317e-01 1.092646e-31
1.111817e-01 3.024286e-31
1.114317e-01 4.340867e-31
1.116817e-01 4.455606e-31
1.119317e-01 3.066709e-31
1.121817e-01 3.233761e-32
1.124317e-01 -3.127310e-31
1.126817e-01 -6.254670e-31
1.129317e-01 -7.915544e-31
1.131817e-01 -7.222862e-31
1.134317e-01 -3.905857e-31
1.136817e-01 1.463890e-31
1.139317e-01 7.487307e-31
1.141817e-01 1.224033e-30
1.144317e-01 1.382181e-30
1.146817e-01 1.101102e-30
1.149317e-01 3.832124e-31
1.151817e-01 -6.188254e-31
1.154317e-01 -1.622449e-30
1.156817e-01 -2.284460e-30
1.159317e-01 -2.305826e-30
1.161817e-01 -1.543550e-30
1.164317e-01 -9.270484e-32
1.166817e-01 1.695845e-30
1.169317e-01 3.281699e-30
1.171817e-01 4.080105e-30
1.174317e-01 3.652879e-30
1.176817e-01 1.889163e-30
1.179317e-01 -8.880828e-31
1.181817e-01 -3.941916e-30
1.184317e-01 -6.287157e-30
1.186817e-01 -6.975664e-30
1.189317e-01 -5.428289e-30
1.191817e-01 -1.709483e-30
1.194317e-01 3.361377e-30
1.196817e-01 8.333872e-30
1.199317e-01 1.149184e-29
1.201817e-01 1.138486e-29
1.204317e-01 7.378323e-30
1.206817e-01 3.770986e-32
1.209317e-01 -8.818440e-30
1.211817e-01 -1.648275e-29
1.214317e-01 -2.010130e-29
1.216817e-01 -1.761747e-29
1.219317e-01 -8.635791e-30
1.221817e-01 5.105552e-30
1.224317e-01 1.989449e-29
1.226817e-01 3.091070e-29
1.229317e-01 3.364443e-29
1.231817e-01 2.549589e-29
1.234317e-01 7.045781e-30
1.236817e-01 -1.750277e-29
1.239317e-01 -4.102828e-29
1.241817e-01 -5.533059e-29
1.244317e-01 -5.370643e-29
1.246817e-01 -3.352971e-29
1.249317e-01 2.041952e-30
1.251817e-01 4.399018e-29
1.254317e-01 7.933868e-29
1.256817e-01 9.478080e-29
1.259317e-01 8.113811e-29
1.261817e-01 3.729638e-29
1.264317e-01 -2.782446e-29
1.266817e-01 -9.632450e-29
1.269317e-01 -1.456387e-28
1.271817e-01 -1.552850e-28
1.274317e-01 -1.142277e-28
1.276817e-01 -2.647221e-29
1.279317e-01 8.735705e-29
1.281817e-01 1.937760e-28
1.284317e-01 2.552990e-28
1.286817e-01 2.423779e-28
1.289317e-01 1.449633e-28
1.291817e-01 -2.031260e-29
1.294317e-01 -2.106170e-28
1.296817e-01 -3.663800e-28
1.299317e-01 -4.282583e-28
1.301817e-01 -3.572862e-28
1.304317e-01 -1.519878e-28
1.306817e-01 1.439390e-28
1.309317e-01 4.477771e-28
1.311817e-01 6.583430e-28
1.314317e-01 6.867172e-28
1.316817e-01 4.886708e-28
1.319317e-01 8.812360e-29
1.321817e-01 -4.180217e-28
1.324317e-01 -8.788350e-28
1.326817e-01 -1.130185e-27
1.329317e-01 -1.047745e-27
1.331817e-01 -5.965117e-28
1.334317e-01 1.405549e-28
1.336817e-01 9.684240e-28
1.339317e-01 1.624875e-27
1.341817e-01 1.856498e-27
1.344317e-01 1.505923e-27
1.346817e-01 5.828634e-28
1.349317e-01 -7.080557e-28
1.351817e-01 -2.000139e-27
1.354317e-01 -2.858298e-27
1.356817e-01 -2.913179e-27
1.359317e-01 -1.997914e-27
1.361817e-01 -2.417789e-28
1.364317e-01 1.918822e-27
1.366817e-01 3.830989e-27
1.369317e-01 4.805640e-27
1.371817e-01 4.343115e-27
1.374317e-01 2.336208e-27
1.376817e-01 -8.220017e-28
1.379317e-01 -4.279282e-27
1.381817e-01 -6.927635e-27
1.384317e-01 -7.729865e-27
1.386817e-01 -6.081598e-27
1.389317e-01 -2.093125e-27
1.391817e-01 3.318432e-27
1.394317e-01 8.591983e-27
1.396817e-01 1.193152e-26
1.399317e-01 1.186790e-26
1.401817e-01 7.811592e-27
1.404317e-01 4.086993e-28
1.406817e-01 -8.454973e-27
1.409317e-01 -1.606608e-26
1.411817e-01 -1.964779e-26
1.414317e-01 -1.728142e-26
1.416817e-01 -8.703589e-27
1.419317e-01 4.311408e-27
1.421817e-01 1.818608e-26