-1.388183e-01 0.000000e+00
-1.385683e-01 0.000000e+00
-1.383183e-01 0.000000e+00
-1.380683e-01 0.000000e+00
-1.378183e-01 0.000000e+00
-1.375683e-01 0.000000e+00
-1.373183e-01 0.000000e+00
-1.370683e-01 0.000000e+00
-1.368183e-01 0.000000e+00
-1.365683e-01 0.000000e+00
-1.363183e-01 0.000000e+00
-1.360683e-01 0.000000e+00
-1.358183e-01 0.000000e+00
-1.355683e-01 0.000000e+00
-1.353183e-01 0.000000e+00
-1.350683e-01 0.000000e+00
-1.348183e-01 0.000000e+00
-1.345683e-01 0.000000e+00
-1.343183e-01 0.000000e+00
-1.340683e-01 0.000000e+00
-1.338183e-01 0.000000e+00
-1.335683e-01 0.000000e+00
-1.333183e-01 0.000000e+00
-1.330683e-01 0.000000e+00
-1.328183e-01 0.000000e+00
-1.325683e-01 0.000000e+00
-1.323183e-01 0.000000e+00
-1.320683e-01 0.000000e+00
-1.318183e-01 0.000000e+00
-1.315683e-01 0.000000e+00
-1.313183e-01 0.000000e+00
-1.310683e-01 0.000000e+00
-1.308183e-01 0.000000e+00
-1.305683e-01 0.000000e+00
-1.303183e-01 0.000000e+00
-1.300683e-01 0.000000e+00
-1.298183e-01 0.000000e+00
-1.295683e-01 0.000000e+00
-1.293183e-01 0.000000e+00
-1.290683e-01 0.000000e+00
-1.288183e-01 0.000000e+00
-1.285683e-01 0.000000e+00
-1.283183e-01 0.000000e+00
-1.280683e-01 0.000000e+00
-1.278183e-01 0.000000e+00
-1.275683e-01 0.000000e+00
-1.273183e-01 0.000000e+00
-1.270683e-01 0.000000e+00
-1.268183e-01 0.000000e+00
-1.265683e-01 0.000000e+00
-1.263183e-01 0.000000e+00
-1.260683e-01 0.000000e+00
-1.258183e-01 0.000000e+00
-1.255683e-01 0.000000e+00
-1.253183e-01 0.000000e+00
-1.250683e-01 0.000000e+00
-1.248183e-01 0.000000e+00
-1.245683e-01 0.000000e+00
-1.243183e-01 0.000000e+00
-1.240683e-01 0.000000e+00
-1.238183e-01 0.000000e+00
-1.235683e-01 0.000000e+00
-1.233183e-01 0.000000e+00
-1.230683e-01 0.000000e+00
-1.228183e-01 0.000000e+00
-1.225683e-01 0.000000e+00
-1.223183e-01 0.000000e+00
-1.220683e-01 0.000000e+00
-1.218183e-01 0.000000e+00
-1.215683e-01 0.000000e+00
-1.213183e-01 0.000000e+00
-1.210683e-01 0.000000e+00
-1.208183e-01 0.000000e+00
-1.205683e-01 0.000000e+00
-1.203183e-01 0.000000e+00
-1.200683e-01 0.000000e+00
-1.198183e-01 2.802597e-45
-1.195683e-01 8.407791e-45
-1.193183e-01 1.961818e-44
-1.190683e-01 2.802597e-44
-1.188183e-01 9.809089e-45
-1.185683e-01 -7.286752e-44
-1.183183e-01 -2.508324e-43
-1.180683e-01 -5.016649e-43
-1.178183e-01 -6.544064e-43
-1.175683e-01 -2.802597e-43
-1.173183e-01 1.299004e-42
-1.170683e-01 4.697152e-42
-1.168183e-01 9.558257e-42
-1.165683e-01 1.302507e-41
-1.163183e-01 8.113518e-42
-1.160683e-01 -1.628589e-41
-1.158183e-01 -7.069270e-41
-1.155683e-01 -1.521684e-40
-1.153183e-01 -2.225066e-40
-1.150683e-01 -1.849139e-40
-1.148183e-01 1.188259e-40
-1.145683e-01 8.523314e-40
-1.143183e-01 2.026868e-39
-1.140683e-01 3.229944e-39
-1.138183e-01 3.321253e-39
-1.135683e-01 3.384738e-40
-1.133183e-01 -7.962544e-39
-1.130683e-01 -2.244679e-38
-1.128183e-01 -3.962781e-38
-1.125683e-01 -4.810563e-38
-1.123183e-01 -2.673840e-38
-1.120683e-01 5.127229e-38
-1.118183e-01 2.033621e-37
-1.115683e-01 4.089502e-37
-1.113183e-01 5.722928e-37
-1.110683e-01 4.962176e-37
-1.108183e-01 -9.658144e-38
-1.105683e-01 -1.447803e-36
-1.103183e-01 -3.520894e-36
-1.100683e-01 -5.658098e-36
-1.098183e-01 -6.277181e-36
-1.095683e-01 -2.894489e-36
-1.093183e-01 7.131508e-36
-1.090683e-01 2.480373e-35
-1.088183e-01 4.669188e-35
-1.085683e-01 6.200337e-35
-1.083183e-01 5.150883e-35
-1.080683e-01 -8.705712e-36
-1.078183e-01 -1.357216e-34
-1.075683e-01 -3.197394e-34
-1.073183e-01 -4.998841e-34
-1.070683e-01 -5.480361e-34
-1.068183e-01 -2.807310e-34
-1.065683e-01 4.782045e-34
-1.063183e-01 1.771589e-33
-1.060683e-01 3.335759e-33
-1.058183e-01 4.445219e-33
-1.055683e-01 3.895495e-33
-1.053183e-01 2.781095e-34
-1.050683e-01 -7.331057e-33
-1.048183e-01 -1.829191e-32
-1.045683e-01 -2.922086e-32
-1.043183e-01 -3.335293e-32
-1.040683e-01 -2.136958e-32
-1.038183e-01 1.540446e-32
-1.035683e-01 7.912860e-32
-1.033183e-01 1.579318e-31
-1.030683e-01 2.197381e-31
-1.028183e-01 2.123476e-31
-1.025683e-01 7.543140e-32
-1.023183e-01 -2.318397e-31
-1.020683e-01 -6.896534e-31
-1.018183e-01 -1.174719e-30
-1.015683e-01 -1.438805e-30
-1.013183e-01 -1.139340e-30
-1.010683e-01 5.065628e-32
-1.008183e-01 2.247755e-30
-1.005683e-01 5.115720e-30
-1.003183e-01 7.670014e-30
-1.000683e-01 8.274981e-30
-9.981829e-02 4.991774e-30
-9.956829e-02 -3.629289e-30
-9.931830e-02 -1.738418e-29
-9.906829e-02 -3.320716e-29
-9.881829e-02 -4.452645e-29
-9.856829e-02 -4.195847e-29
-9.831829e-02 -1.600045e-29
-9.806830e-02 3.816730e-29
-9.781829e-02 1.146727e-28
-9.756829e-02 1.919308e-28
-9.731829e-02 2.319016e-28
-9.706829e-02 1.871190e-28
-9.681829e-02 1.754156e-29
-9.656829e-02 -2.842243e-28
-9.631829e-02 -6.660009e-28
-9.606829e-02 -9.995889e-28
-9.581830e-02 -1.090173e-27
-9.556829e-02 -7.247246e-28
-9.531829e-02 2.376877e-28
-9.506829e-02 1.749299e-27
-9.481829e-02 3.469505e-27
-9.456830e-02 4.731466e-27
-9.431829e-02 4.641742e-27
-9.406829e-02 2.351967e-27
-9.381829e-02 -2.515375e-27
-9.356830e-02 -9.389295e-27
-9.331829e-02 -1.641177e-26
-9.306829e-02 -2.048311e-26
-9.281829e-02 -1.790813e-26
-9.256829e-02 -5.713602e-27
-9.231830e-02 1.656007e-26
-9.206829e-02 4.512647e-26
-9.181829e-02 7.110446e-26
-9.156829e-02 8.146086e-26
-9.131829e-02 6.237008e-26
-9.106829e-02 4.886081e-27
-9.081829e-02 -8.827828e-26
-9.056829e-02 -1.972524e-25
-9.031829e-02 -2.839531e-25
-9.006830e-02 -2.984327e-25
-8.981829e-02 -1.939512e-25
-8.956829e-02 5.102457e-26
-8.931829e-02 4.097125e-25
-8.906829e-02 7.922446e-25
-8.881830e-02 1.050103e-24
-8.856829e-02 1.008058e-24
-8.831829e-02 5.243948e-25
-8.806829e-02 -4.316030e-25
-8.781829e-02 -1.708998e-24
-8.756829e-02 -2.944939e-24
-8.731829e-02 -3.608158e-24
-8.706829e-02 -3.135102e-24
-8.681829e-02 -1.147776e-24
-8.656830e-02 2.297500e-24
-8.631829e-02 6.519132e-24
-8.606829e-02 1.018483e-23
-8.581829e-02 1.154225e-23
-8.556829e-02 8.933109e-24
-8.531829e-02 1.513243e-24
-8.506829e-02 -1.002017e-23
-8.481829e-02 -2.298927e-23
-8.456829e-02 -3.289680e-23
-8.431830e-02 -3.439850e-23
-8.406829e-02 -2.306082e-23
-8.381829e-02 2.453178e-24
-8.356829e-02 3.846127e-23
-8.331829e-02 7.549453e-23
-8.306830e-02 9.950231e-23
-8.281829e-02 9.540917e-23
-8.256829e-02 5.262159e-23
-8.231829e-02 -2.887269e-23
-8.206829e-02 -1.339857e-22
-8.181829e-02 -2.320522e-22
-8.156829e-02 -2.822790e-22
-8.131829e-02 -2.454383e-22
-8.106829e-02 -9.977493e-23
-8.081830e-02 1.433932e-22
-8.056829e-02 4.306262e-22
-8.031829e-02 6.700444e-22
-8.006829e-02 7.513977e-22
-7.981829e-02 5.812103e-22
-7.956829e-02 1.252780e-22
-7.931829e-02 -5.550927e-22
-7.906829e-02 -1.289556e-21
-7.881829e-02 -1.821872e-21
-7.856829e-02 -1.874805e-21
-7.831829e-02 -1.247627e-21
-7.806829e-02 7.897434e-23
-7.781829e-02 1.868013e-21
-7.756829e-02 3.621133e-21
-7.731830e-02 4.670939e-21
-7.706829e-02 4.371066e-21
-7.681829e-02 2.347030e-21
-7.656829e-02 -1.265575e-21
-7.631829e-02 -5.690426e-21
-7.606829e-02 -9.574886e-21
-7.581829e-02 -1.129375e-20
-7.556829e-02 -9.461179e-21
-7.531829e-02 -3.530109e-21
-7.506829e-02 5.716389e-21
-7.481829e-02 1.600318e-20
-7.456829e-02 2.390312e-20
-7.431829e-02 2.572064e-20
-7.406829e-02 1.877030e-20
-7.381829e-02 2.703834e-21
-7.356829e-02 -1.959324e-20
-7.331829e-02 -4.201002e-20
-7.306829e-02 -5.641502e-20
-7.281829e-02 -5.499606e-20
-7.256829e-02 -3.323146e-20
-7.231829e-02 7.406908e-21
-7.206829e-02 5.810327e-20
-7.181829e-02 1.036242e-19
-7.156829e-02 1.258902e-19
-7.131829e-02 1.096959e-19
-7.106829e-02 4.913647e-20
-7.081829e-02 -4.740766e-20
-7.056829e-02 -1.559939e-19
-7.031829e-02 -2.411372e-19
-7.006829e-02 -2.652405e-19
-6.981829e-02 -2.015994e-19
-6.956829e-02 -4.728493e-20
-6.931829e-02 1.688313e-19
-6.906829e-02 3.872554e-19
-6.881829e-02 5.304931e-19
-6.856829e-02 5.258243e-19
-6.831829e-02 3.328630e-19
-6.806829e-02 -3.273728e-20
-6.781829e-02 -4.891177e-19
-6.756829e-02 -8.990735e-19
-6.731829e-02 -1.103881e-18
-6.706829e-02 -9.742399e-19
-6.681829e-02 -4.646586e-19
-6.656829e-02 3.473877e-19
-6.631829e-02 1.255781e-18
-6.606829e-02 1.964667e-18
-6.581829e-02 2.169947e-18
-6.556829e-02 1.665457e-18
-6.531829e-02 4.422954e-19
-6.506829e-02 -1.256122e-18
-6.481829e-02 -2.954612e-18
-6.456829e-02 -4.054740e-18
-6.431829e-02 -4.015294e-18
-6.406829e-02 -2.558809e-18
-6.381829e-02 1.628805e-19
-6.356829e-02 3.513513e-18
-6.331829e-02 6.475245e-18
-6.306829e-02 7.912587e-18
-6.281829e-02 6.943866e-18
-6.256829e-02 3.314954e-18
-6.231829e-02 -2.356772e-18
-6.206829e-02 -8.586618e-18
-6.181829e-02 -1.333395e-17
-6.156829e-02 -1.458506e-17
-6.131829e-02 -1.106684e-17
-6.106829e-02 -2.870436e-18
-6.081829e-02 8.256740e-18
-6.056829e-02 1.913221e-17
-6.031829e-02 2.591575e-17
-6.006829e-02 2.529931e-17
-5.981829e-02 1.578674e-17
-5.956829e-02 -1.365687e-18
-5.931829e-02 -2.195657e-17
-5.906829e-02 -3.963311e-17
-5.881829e-02 -4.761729e-17
-5.856829e-02 -4.097038e-17
-5.831829e-02 -1.872362e-17
-5.806829e-02 1.490022e-17
-5.781829e-02 5.080383e-17
-5.756829e-02 7.710013e-17
-5.731829e-02 8.262546e-17
-5.706829e-02 6.096778e-17
-5.681829e-02 1.371743e-17
-5.656829e-02 -4.835973e-17
-5.631829e-02 -1.070819e-16
-5.606829e-02 -1.415576e-16
-5.581829e-02 -1.348301e-16
-5.556829e-02 -8.056009e-17
-5.531829e-02 1.256303e-17
-5.506829e-02 1.206867e-16
-5.481829e-02 2.098724e-16
-5.456829e-02 2.457038e-16
-5.431829e-02 2.050303e-16
-5.406829e-02 8.622296e-17
-5.381829e-02 -8.590519e-17
-5.356829e-02 -2.632915e-16
-5.331829e-02 -3.864575e-16
-5.306829e-02 -4.026316e-16
-5.281829e-02 -2.851637e-16
-5.256829e-02 -4.780286e-17
-5.231829e-02 2.520878e-16
-5.206829e-02 5.246465e-16
-5.181829e-02 6.719280e-16
-5.156829e-02 6.198037e-16
-5.131829e-02 3.478386e-16
-5.106829e-02 -9.348946e-17
-5.081829e-02 -5.865424e-16
-5.056829e-02 -9.739293e-16
-5.031829e-02 -1.104642e-15
-5.006829e-02 -8.866411e-16
-4.981829e-02 -3.291182e-16
-4.956829e-02 4.419249e-16
-4.931829e-02 1.205011e-15
-4.906829e-02 1.700931e-15
-4.881829e-02 1.713834e-15
-4.856829e-02 1.152270e-15
-4.831829e-02 1.025702e-16
-4.806829e-02 -1.168579e-15
-4.781829e-02 -2.272303e-15
-4.756829e-02 -2.807464e-15
-4.731829e-02 -2.494138e-15
-4.706829e-02 -1.289456e-15
-4.681829e-02 5.565905e-16
-4.656829e-02 2.534749e-15
-4.631829e-02 4.003574e-15
-4.606829e-02 4.383021e-15
-4.581829e-02 3.360395e-15
-4.556829e-02 1.041074e-15
-4.531829e-02 -2.016320e-15
-4.506829e-02 -4.911668e-15
-4.481829e-02 -6.648898e-15
-4.456829e-02 -6.454765e-15
-4.431829e-02 -4.075441e-15
-4.406829e-02 5.274432e-17
-4.381829e-02 4.836637e-15
-4.356829e-02 8.785776e-15
-4.331829e-02 1.044751e-14
-4.306829e-02 8.899676e-15
-4.281829e-02 4.144526e-15
-4.256829e-02 -2.744458e-15
-4.231829e-02 -9.811377e-15
-4.206829e-02 -1.473224e-14
-4.181829e-02 -1.553350e-14
-4.156829e-02 -1.130592e-14
-4.131829e-02 -2.673693e-15
-4.106829e-02 8.176266e-15
-4.081829e-02 1.798264e-14
-4.056829e-02 2.333175e-14
-4.031829e-02 2.177132e-14
-4.006829e-02 1.277269e-14
-3.981829e-02 -1.802755e-15
-3.956829e-02 -1.796354e-14
-3.931829e-02 -3.059642e-14
-3.906829e-02 -3.499826e-14
-3.881829e-02 -2.849849e-14
-3.856829e-02 -1.164468e-14
-3.831829e-02 1.150763e-14
-3.806829e-02 3.422835e-14
-3.781829e-02 4.895541e-14
-3.756829e-02 4.967964e-14
-3.731829e-02 3.415733e-14
-3.706829e-02 5.190604e-15
-3.681829e-02 -2.958233e-14
-3.656829e-02 -5.952868e-14
-3.631829e-02 -7.411355e-14
-3.606829e-02 -6.639357e-14
-3.581829e-02 -3.580964e-14
-3.556829e-02 1.074368e-14
-3.531829e-02 6.016452e-14
-3.506829e-02 9.661195e-14
-3.481829e-02 1.063528e-13
-3.456829e-02 8.257221e-14
-3.431829e-02 2.855318e-14
-3.406829e-02 -4.204567e-14
-3.381829e-02 -1.082948e-13
-3.356829e-02 -1.479083e-13
-3.331829e-02 -1.443899e-13
-3.306829e-02 -9.321783e-14
-3.281829e-02 -4.901400e-15
-3.256829e-02 9.650507e-14
-3.231829e-02 1.795354e-13
-3.206829e-02 2.146746e-13
-3.181829e-02 1.842883e-13
-3.156829e-02 8.992472e-14
-3.131829e-02 -4.574554e-14
-3.106829e-02 -1.836733e-13
-3.081829e-02 -2.791444e-13
-3.056829e-02 -2.956980e-13
-3.031829e-02 -2.180840e-13
-3.006829e-02 -5.988904e-14
-2.981829e-02 1.373311e-13
-2.956829e-02 3.141767e-13
-2.931829e-02 4.106084e-13
-2.906829e-02 3.854625e-13
-2.881829e-02 2.321709e-13
-2.856829e-02 -1.491681e-14
-2.831829e-02 -2.868084e-13
-2.806829e-02 -4.981998e-13
-2.781828e-02 -5.733113e-13
-2.756829e-02 -4.716803e-13
-2.731829e-02 -2.054862e-13
-2.706829e-02 1.582418e-13
-2.681829e-02 5.130207e-13
-2.656829e-02 7.429404e-13
-2.631829e-02 7.592285e-13
-2.606829e-02 5.321903e-13
-2.581829e-02 1.075943e-13
-2.556829e-02 -3.996065e-13
-2.531829e-02 -8.347437e-13
-2.506829e-02 -1.049123e-12
-2.481829e-02 -9.488975e-13
-2.456829e-02 -5.315907e-13
-2.431829e-02 1.029739e-13
-2.406829e-02 7.737194e-13
-2.381829e-02 1.268028e-12
-2.356829e-02 1.407123e-12
-2.331829e-02 1.107607e-12
-2.306829e-02 4.187806e-13
-2.281829e-02 -4.789815e-13
-2.256829e-02 -1.318469e-12
-2.231829e-02 -1.822708e-12
-2.206829e-02 -1.793408e-12
-2.181829e-02 -1.183354e-12
-2.156829e-02 -1.276071e-13
-2.131829e-02 1.080898e-12
-2.106829e-02 2.069290e-12
-2.081829e-02 2.496621e-12
-2.056829e-02 2.167003e-12
-2.031828e-02 1.107650e-12
-2.006829e-02 -4.169832e-13
-1.981829e-02 -1.966015e-12
-1.956829e-02 -3.045901e-12
-1.931829e-02 -3.263590e-12
-1.906829e-02 -2.462694e-12
-1.881829e-02 -7.971353e-13
-1.856828e-02 1.287587e-12
-1.831829e-02 3.168550e-12
-1.806829e-02 4.227566e-12
-1.781829e-02 4.049375e-12
-1.756829e-02 2.573726e-12
-1.731829e-02 1.481027e-13
-1.706829e-02 -2.545252e-12
-1.681828e-02 -4.676370e-12
-1.656829e-02 -5.519250e-12
-1.631829e-02 -4.693328e-12
-1.606829e-02 -2.316252e-12
-1.581829e-02 9.893033e-13
-1.556829e-02 4.250237e-12
-1.531829e-02 6.424003e-12
-1.506829e-02 6.726976e-12
-1.481829e-02 4.908780e-12
-1.456829e-02 1.379333e-12
-1.431829e-02 -2.865576e-12
-1.406829e-02 -6.514326e-12
-1.381829e-02 -8.335574e-12
-1.356828e-02 -7.583915e-12
-1.331829e-02 -4.284894e-12
-1.306829e-02 7.037348e-13
-1.281829e-02 5.894768e-12
-1.256830e-02 9.597051e-12
-1.231828e-02 1.044676e-11
-1.206829e-02 7.882597e-12
-1.181829e-02 2.406225e-12
-1.156829e-02 -4.476364e-12
-1.131828e-02 -1.064375e-11
-1.106828e-02 -1.398451e-11
-1.081829e-02 -1.308077e-11
-1.056829e-02 -7.736383e-12
-1.031829e-02 8.338382e-13
-1.006828e-02 1.024643e-11
-9.818286e-03 1.758679e-11
-9.568289e-03 2.027698e-11
-9.318292e-03 1.692147e-11
-9.068280e-03 7.862657e-12
-8.818284e-03 -4.753865e-12
-8.568287e-03 -1.746805e-11
-8.318290e-03 -2.644412e-11
-8.068293e-03 -2.860638e-11
-7.818282e-03 -2.263802e-11
-7.568285e-03 -9.524989e-12
-7.318288e-03 7.556245e-12
-7.068291e-03 2.402032e-11
-6.818295e-03 3.513242e-11
-6.568283e-03 3.739408e-11
-6.318286e-03 2.964276e-11
-6.068289e-03 1.351528e-11
-5.818292e-03 -6.899651e-12
-5.568281e-03 -2.615495e-11
-5.318284e-03 -3.898707e-11
-5.068287e-03 -4.185574e-11
-4.818290e-03 -3.401108e-11
-4.568294e-03 -1.774418e-11
-4.318282e-03 2.281713e-12
-4.068285e-03 2.043738e-11
-3.818288e-03 3.184821e-11
-3.568292e-03 3.389003e-11
-3.318280e-03 2.697263e-11
-3.068283e-03 1.433618e-11
-2.818286e-03 8.992078e-13
-2.568290e-03 -8.485901e-12
-2.318293e-03 -1.079634e-11
-2.068281e-03 -6.009062e-12
-1.818284e-03 2.769985e-12
-1.568288e-03 1.033782e-11
-1.318291e-03 1.131393e-11
-1.068294e-03 2.340953e-12
-8.182824e-04 -1.619615e-11
-5.682856e-04 -3.960649e-11
-3.182888e-04 -5.983394e-11
-6.829202e-05 -6.777413e-11
1.817197e-04 -5.635646e-11
4.317164e-04 -2.344694e-11
6.817132e-04 2.642912e-11
9.317100e-04 8.228115e-11
1.181707e-03 1.289683e-10
1.431718e-03 1.511836e-10
1.681715e-03 1.380722e-10
1.931712e-03 8.713281e-11
2.181709e-03 6.122478e-12
2.431706e-03 -8.783834e-11
2.681717e-03 -1.719940e-10
2.931714e-03 -2.237005e-10
3.181711e-03 -2.266983e-10
3.431708e-03 -1.761349e-10
3.681719e-03 -8.078706e-11
3.931716e-03 3.836584e-11
4.181713e-03 1.530561e-10
4.431710e-03 2.349483e-10
4.681706e-03 2.632428e-10
4.931718e-03 2.305233e-10
5.181715e-03 1.451097e-10
5.431712e-03 2.911136e-11
5.681708e-03 -8.741766e-11
5.931720e-03 -1.746698e-10
6.181717e-03 -2.113390e-10
6.431714e-03 -1.905660e-10
6.681710e-03 -1.218061e-10
6.931707e-03 -2.800122e-11
7.181719e-03 6.119672e-11
7.431716e-03 1.182253e-10
7.681713e-03 1.258665e-10
7.931709e-03 8.250368e-11
8.181706e-03 2.771228e-12
8.431718e-03 -8.666636e-11
8.681715e-03 -1.550193e-10
8.931711e-03 -1.766572e-10
9.181708e-03 -1.390247e-10
9.431720e-03 -4.682012e-11
9.681717e-03 7.883814e-11
9.931713e-03 2.060379e-10
1.018171e-02 3.008442e-10
1.043171e-02 3.366298e-10
1.068172e-02 3.012344e-10
1.093172e-02 1.999131e-10
1.118171e-02 5.334652e-11
1.143171e-02 -1.084914e-10
1.168172e-02 -2.545602e-10
1.193172e-02 -3.604552e-10
1.218171e-02 -4.132478e-10
1.243171e-02 -4.121788e-10
1.268171e-02 -3.653949e-10
1.293172e-02 -2.843084e-10
1.318172e-02 -1.780012e-10
1.343171e-02 -5.006028e-11
1.368171e-02 1.006818e-10
1.393171e-02 2.755531e-10
1.418172e-02 4.692612e-10
1.443172e-02 6.637289e-10
1.468171e-02 8.255623e-10
1.493171e-02 9.092882e-10
1.518172e-02 8.667259e-10
1.543172e-02 6.607178e-10
1.568171e-02 2.796133e-10
1.593171e-02 -2.519610e-10
1.618171e-02 -8.700312e-10
1.643172e-02 -1.478081e-09
1.668172e-02 -1.963221e-09
1.693171e-02 -2.218419e-09
1.718171e-02 -2.165455e-09
1.743171e-02 -1.772671e-09
1.768172e-02 -1.062740e-09
1.793171e-02 -1.083043e-10
1.818171e-02 9.832543e-10
1.843171e-02 2.091482e-09
1.868172e-02 3.104572e-09
1.893172e-02 3.934731e-09
1.918171e-02 4.522723e-09
1.943171e-02 4.830634e-09
1.968171e-02 4.825824e-09
1.993172e-02 4.462249e-09
2.018172e-02 3.666739e-09
2.043171e-02 2.336780e-09
2.068171e-02 3.530947e-10
2.093172e-02 -2.394360e-09
2.118172e-02 -5.973096e-09
2.143171e-02 -1.037689e-08
2.168171e-02 -1.550685e-08
2.193171e-02 -2.117254e-08
2.218172e-02 -2.711626e-08
2.243172e-02 -3.305720e-08
2.268171e-02 -3.874640e-08
2.293171e-02 -4.401966e-08
2.318171e-02 -4.883492e-08
2.343172e-02 -5.328395e-08
2.368172e-02 -5.757410e-08
2.393171e-02 -6.198334e-08
2.418171e-02 -6.679885e-08
2.443172e-02 -7.225379e-08
2.468172e-02 -7.847748e-08
2.493171e-02 -8.547114e-08
2.518171e-02 -9.311462e-08
2.543171e-02 -1.012019e-07
2.568172e-02 -1.094956e-07
2.593172e-02 -1.177865e-07
2.618171e-02 -1.259428e-07
2.643171e-02 -1.339377e-07
2.668172e-02 -1.418486e-07
2.693172e-02 -1.498312e-07
2.718171e-02 -1.580754e-07
2.743171e-02 -1.667568e-07
2.768171e-02 -1.759960e-07
2.793172e-02 -1.858371e-07
2.818172e-02 -1.962481e-07
2.843171e-02 -2.071435e-07
2.868171e-02 -2.184205e-07
2.893171e-02 -2.299979e-07
2.918172e-02 -2.418486e-07
2.943172e-02 -2.540160e-07
2.968171e-02 -2.666118e-07
2.993171e-02 -2.797981e-07
3.018172e-02 -2.937568e-07
3.043172e-02 -3.086574e-07
3.068171e-02 -3.246277e-07
3.093171e-02 -3.417347e-07
3.118171e-02 -3.599773e-07
3.143172e-02 -3.792904e-07
3.168172e-02 -3.995565e-07
3.193171e-02 -4.206246e-07
3.218171e-02 -4.423302e-07
3.243172e-02 -4.645183e-07
3.268172e-02 -4.870657e-07
3.293172e-02 -5.099049e-07
3.318171e-02 -5.330446e-07
3.343171e-02 -5.565868e-07
3.368172e-02 -5.807331e-07
3.393172e-02 -6.057759e-07
3.418171e-02 -6.320738e-07
3.443171e-02 -6.600075e-07
3.468171e-02 -6.899252e-07
3.493172e-02 -7.220843e-07
3.518172e-02 -7.566038e-07
3.543171e-02 -7.934382e-07
3.568171e-02 -8.323830e-07
3.593172e-02 -8.731135e-07
3.618172e-02 -9.152514e-07
3.643171e-02 -9.584464e-07
3.668171e-02 -1.002455e-06
3.693171e-02 -1.047198e-06
3.718172e-02 -1.092785e-06
3.743172e-02 -1.139493e-06
3.768171e-02 -1.187719e-06
3.793171e-02 -1.237898e-06
3.818171e-02 -1.290427e-06
3.843172e-02 -1.345604e-06
3.868172e-02 -1.403589e-06
3.893171e-02 -1.464422e-06
3.918171e-02 -1.528056e-06
3.943172e-02 -1.594422e-06
3.968172e-02 -1.663492e-06
3.993171e-02 -1.735322e-06
4.018171e-02 -1.810065e-06
4.043171e-02 -1.887950e-06
4.068172e-02 -1.969231e-06
4.093172e-02 -2.054125e-06
4.118171e-02 -2.142752e-06
4.143171e-02 -2.235110e-06
4.168172e-02 -2.331079e-06
4.193172e-02 -2.430466e-06
4.218172e-02 -2.533081e-06
4.243171e-02 -2.638816e-06
4.268171e-02 -2.747712e-06
4.293172e-02 -2.859995e-06
4.318172e-02 -2.976071e-06
4.343171e-02 -3.096466e-06
4.368171e-02 -3.221753e-06
4.393171e-02 -3.352456e-06
4.418172e-02 -3.488973e-06
4.443172e-02 -3.631529e-06
4.468171e-02 -3.780175e-06
4.493171e-02 -3.934834e-06
4.518172e-02 -4.095368e-06
4.543172e-02 -4.261670e-06
4.568172e-02 -4.433738e-06
4.593171e-02 -4.611717e-06
4.618171e-02 -4.795910e-06
4.643172e-02 -4.986745e-06
4.668172e-02 -5.184706e-06
4.693171e-02 -5.390267e-06
4.718171e-02 -5.603817e-06
4.743172e-02 -5.825623e-06
4.768172e-02 -6.055824e-06
4.793172e-02 -6.294455e-06
4.818171e-02 -6.541505e-06
4.843171e-02 -6.796987e-06
4.868172e-02 -7.061004e-06
4.893172e-02 -7.333791e-06
4.918171e-02 -7.615738e-06
4.943171e-02 -7.907379e-06
4.968171e-02 -8.209347e-06
4.993172e-02 -8.522324e-06
5.018172e-02 -8.846972e-06
5.043171e-02 -9.183887e-06
5.068171e-02 -9.533553e-06
5.093172e-02 -9.896327e-06
5.118172e-02 -1.027245e-05
5.143172e-02 -1.066208e-05
5.168171e-02 -1.106533e-05
5.193171e-02 -1.148229e-05
5.218172e-02 -1.191314e-05
5.243172e-02 -1.235810e-05
5.268171e-02 -1.281755e-05
5.293171e-02 -1.329196e-05
5.318171e-02 -1.378191e-05
5.343172e-02 -1.428809e-05
5.368172e-02 -1.481119e-05
5.393171e-02 -1.535198e-05
5.418171e-02 -1.591115e-05
5.443172e-02 -1.648938e-05
5.468172e-02 -1.708729e-05
5.493172e-02 -1.770547e-05
5.518171e-02 -1.834447e-05
5.543171e-02 -1.900484e-05
5.568172e-02 -1.968718e-05
5.593172e-02 -2.039210e-05
5.618171e-02 -2.112027e-05
5.643171e-02 -2.187239e-05
5.668172e-02 -2.264919e-05
5.693172e-02 -2.345135e-05
5.718172e-02 -2.427955e-05
5.743171e-02 -2.513440e-05
5.768171e-02 -2.601651e-05
5.793172e-02 -2.692644e-05
5.818172e-02 -2.786481e-05
5.843171e-02 -2.883229e-05
5.868171e-02 -2.982966e-05
5.893171e-02 -3.085783e-05
5.918172e-02 -3.191781e-05
5.943172e-02 -3.301072e-05
5.968171e-02 -3.413772e-05
5.993171e-02 -3.530001e-05
6.018172e-02 -3.649873e-05
6.043172e-02 -3.773496e-05
6.068172e-02 -3.900973e-05
6.093171e-02 -4.032398e-05
6.118171e-02 -4.167860e-05
6.143172e-02 -4.307449e-05
6.168172e-02 -4.451256e-05
6.193171e-02 -4.599374e-05
6.218171e-02 -4.751907e-05
6.243172e-02 -4.908961e-05
6.268172e-02 -5.070648e-05
6.293172e-02 -5.237087e-05
6.318171e-02 -5.408398e-05
6.343171e-02 -5.584708e-05
6.368172e-02 -5.766149e-05
6.393172e-02 -5.952858e-05
6.418172e-02 -6.144977e-05
6.443171e-02 -6.342655e-05
6.468171e-02 -6.546042e-05
6.493172e-02 -6.755290e-05
6.518172e-02 -6.970551e-05
6.543171e-02 -7.191971e-05
6.568171e-02 -7.419693e-05
6.593172e-02 -7.653858e-05
6.618172e-02 -7.894608e-05
6.643172e-02 -8.142084e-05
6.668171e-02 -8.396437e-05
6.693171e-02 -8.657823e-05
6.718172e-02 -8.926408e-05
6.743172e-02 -9.202368e-05
6.768171e-02 -9.485881e-05
6.793171e-02 -9.777130e-05
6.818172e-02 -1.007629e-04
6.843172e-02 -1.038355e-04
6.868172e-02 -1.069908e-04
6.893171e-02 -1.102304e-04
6.918171e-02 -1.135561e-04
6.943172e-02 -1.169697e-04
6.968172e-02 -1.204730e-04
6.993172e-02 -1.240680e-04
7.018171e-02 -1.277567e-04
7.043171e-02 -1.315413e-04
7.068172e-02 -1.354239e-04
7.093172e-02 -1.394070e-04
7.118171e-02 -1.434927e-04
7.143171e-02 -1.476833e-04
7.168172e-02 -1.519809e-04
7.193172e-02 -1.563878e-04
7.218172e-02 -1.609059e-04
7.243171e-02 -1.655375e-04
7.268171e-02 -1.702845e-04
7.293172e-02 -1.751492e-04
7.318172e-02 -1.801338e-04
7.343172e-02 -1.852405e-04
7.368171e-02 -1.904718e-04
7.393171e-02 -1.958299e-04
7.418172e-02 -2.013175e-04
7.443172e-02 -2.069371e-04
7.468171e-02 -2.126912e-04
7.493171e-02 -2.185824e-04
7.518172e-02 -2.246133e-04
7.543172e-02 -2.307865e-04
7.568172e-02 -2.371047e-04
7.593171e-02 -2.435704e-04
7.618171e-02 -2.501862e-04
7.643172e-02 -2.569548e-04
7.668172e-02 -2.638786e-04
7.693172e-02 -2.709602e-04
7.718171e-02 -2.782021e-04
7.743172e-02 -2.856071e-04
7.768172e-02 -2.931778e-04
7.793172e-02 -3.009169e-04
7.818171e-02 -3.088273e-04
7.843171e-02 -3.169120e-04
7.868172e-02 -3.251738e-04
7.893172e-02 -3.336159e-04
7.918172e-02 -3.422413e-04
7.943171e-02 -3.510529e-04
7.968171e-02 -3.600537e-04
7.993172e-02 -3.692464e-04
8.018172e-02 -3.786339e-04
8.043171e-02 -3.882188e-04
8.068171e-02 -3.980038e-04
8.093172e-02 -4.079914e-04
8.118172e-02 -4.181843e-04
8.143172e-02 -4.285852e-04
8.168171e-02 -4.391969e-04
8.193171e-02 -4.500221e-04
8.218172e-02 -4.610639e-04
8.243172e-02 -4.723251e-04
8.268172e-02 -4.838090e-04
8.293171e-02 -4.955185e-04
8.318172e-02 -5.074568e-04
8.343172e-02 -5.196271e-04
8.368172e-02 -5.320323e-04
8.393171e-02 -5.446755e-04
8.418171e-02 -5.575594e-04
8.443172e-02 -5.706870e-04
8.468172e-02 -5.840609e-04
8.493172e-02 -5.976837e-04
8.518171e-02 -6.115579e-04
8.543171e-02 -6.256863e-04
8.568172e-02 -6.400712e-04
8.593172e-02 -6.547155e-04
8.618172e-02 -6.696214e-04
8.643171e-02 -6.847916e-04
8.668172e-02 -7.002284e-04
8.693172e-02 -7.159343e-04
8.718172e-02 -7.319113e-04
8.743171e-02 -7.481619e-04
8.768171e-02 -7.646882e-04
8.793172e-02 -7.814925e-04
8.818172e-02 -7.985772e-04
8.843172e-02 -8.159447e-04
8.868171e-02 -8.335974e-04
8.893172e-02 -8.515378e-04
8.918172e-02 -8.697683e-04
8.943172e-02 -8.882912e-04
8.968171e-02 -9.071087e-04
8.993171e-02 -9.262229e-04
9.018172e-02 -9.456357e-04
9.043172e-02 -9.653487e-04
9.068172e-02 -9.853634e-04
9.093171e-02 -1.005681e-03
9.118171e-02 -1.026303e-03
9.143172e-02 -1.047231e-03
9.168172e-02 -1.068464e-03
9.193172e-02 -1.090006e-03
9.218171e-02 -1.111856e-03
9.243172e-02 -1.134015e-03
9.268172e-02 -1.156485e-03
9.293172e-02 -1.179266e-03
9.318171e-02 -1.202359e-03
9.343171e-02 -1.225765e-03
9.368172e-02 -1.249484e-03
9.393172e-02 -1.273516e-03
9.418172e-02 -1.297862e-03
9.443171e-02 -1.322523e-03
9.468171e-02 -1.347498e-03
9.493172e-02 -1.372787e-03
9.518172e-02 -1.398391e-03
9.543172e-02 -1.424310e-03
9.568171e-02 -1.450543e-03
9.593172e-02 -1.477089e-03
9.618172e-02 -1.503947e-03
9.643172e-02 -1.531117e-03
9.668171e-02 -1.558597e-03
9.693171e-02 -1.586386e-03
9.718172e-02 -1.614483e-03
9.743172e-02 -1.642886e-03
9.768172e-02 -1.671594e-03
9.793171e-02 -1.700606e-03
9.818172e-02 -1.729919e-03
9.843172e-02 -1.759532e-03
9.868172e-02 -1.789441e-03
9.893171e-02 -1.819644e-03
9.918171e-02 -1.850137e-03
9.943172e-02 -1.880920e-03
9.968172e-02 -1.911987e-03
9.993172e-02 -1.943337e-03
1.001817e-01 -1.974965e-03
1.004317e-01 -2.006868e-03
1.006817e-01 -2.039043e-03
1.009317e-01 -2.071485e-03
1.011817e-01 -2.104190e-03
1.014317e-01 -2.137154e-03
1.016817e-01 -2.170373e-03
1.019317e-01 -2.203841e-03
1.021817e-01 -2.237556e-03
1.024317e-01 -2.271511e-03
1.026817e-01 -2.305702e-03
1.029317e-01 -2.340123e-03
1.031817e-01 -2.374768e-03
1.034317e-01 -2.409631e-03
1.036817e-01 -2.444706e-03
1.039317e-01 -2.479987e-03
1.041817e-01 -2.515468e-03
1.044317e-01 -2.551140e-03
1.046817e-01 -2.586999e-03
1.049317e-01 -2.623035e-03
1.051817e-01 -2.659243e-03
1.054317e-01 -2.695613e-03
1.056817e-01 -2.732137e-03
1.059317e-01 -2.768809e-03
1.061817e-01 -2.805619e-03
1.064317e-01 -2.842558e-03
1.066817e-01 -2.879619e-03
1.069317e-01 -2.916792e-03
1.071817e-01 -2.954069e-03
1.074317e-01 -2.991440e-03
1.076817e-01 -3.028896e-03
1.079317e-01 -3.066426e-03
1.081817e-01 -3.104022e-03
1.084317e-01 -3.141671e-03
1.086817e-01 -3.179364e-03
1.089317e-01 -3.217090e-03
1.091817e-01 -3.254839e-03
1.094317e-01 -3.292600e-03
1.096817e-01 -3.330362e-03
1.099317e-01 -3.368113e-03
1.101817e-01 -3.405842e-03
1.104317e-01 -3.443537e-03
1.106817e-01 -3.481186e-03
1.109317e-01 -3.518775e-03
1.111817e-01 -3.556292e-03
1.114317e-01 -3.593725e-03
1.116817e-01 -3.631061e-03
1.119317e-01 -3.668288e-03
1.121817e-01 -3.705391e-03
1.124317e-01 -3.742358e-03
1.126817e-01 -3.779175e-03
1.129317e-01 -3.815827e-03
1.131817e-01 -3.852302e-03
1.134317e-01 -3.888585e-03
1.136817e-01 -3.924662e-03
1.139317e-01 -3.960518e-03
1.141817e-01 -3.996139e-03
1.144317e-01 -4.031511e-03
1.146817e-01 -4.066618e-03
1.149317e-01 -4.101445e-03
1.151817e-01 -4.135977e-03
1.154317e-01 -4.170199e-03
1.156817e-01 -4.204095e-03
1.159317e-01 -4.237650e-03
1.161817e-01 -4.270849e-03
1.164317e-01 -4.303677e-03
1.166817e-01 -4.336118e-03
1.169317e-01 -4.368156e-03
1.171817e-01 -4.399776e-03
1.174317e-01 -4.430959e-03
1.176817e-01 -4.461690e-03
1.179317e-01 -4.491954e-03
1.181817e-01 -4.521733e-03
1.184317e-01 -4.551013e-03
1.186817e-01 -4.579778e-03
1.189317e-01 -4.608011e-03
1.191817e-01 -4.635698e-03
1.194317e-01 -4.662820e-03
1.196817e-01 -4.689361e-03
1.199317e-01 -4.715303e-03
1.201817e-01 -4.740630e-03
1.204317e-01 -4.765326e-03
1.206817e-01 -4.789375e-03
1.209317e-01 -4.812761e-03
1.211817e-01 -4.835468e-03
1.214317e-01 -4.857481e-03
1.216817e-01 -4.878785e-03
1.219317e-01 -4.899360e-03
1.221817e-01 -4.919192e-03
1.224317e-01 -4.938263e-03
1.226817e-01 -4.956557e-03
1.229317e-01 -4.974059e-03
1.231817e-01 -4.990754e-03
1.234317e-01 -5.006626e-03
1.236817e-01 -5.021662e-03
1.239317e-01 -5.035846e-03
1.241817e-01 -5.049165e-03
1.244317e-01 -5.061603e-03
1.246817e-01 -5.073143e-03
1.249317e-01 -5.083770e-03
1.251817e-01 -5.093470e-03
1.254317e-01 -5.102229e-03
1.256817e-01 -5.110034e-03
1.259317e-01 -5.116872e-03
1.261817e-01 -5.122730e-03
1.264317e-01 -5.127595e-03
1.266817e-01 -5.131454e-03
1.269317e-01 -5.134295e-03
1.271817e-01 -5.136103e-03
1.274317e-01 -5.136865e-03
1.276817e-01 -5.136569e-03
1.279317e-01 -5.135203e-03
1.281817e-01 -5.132756e-03
1.284317e-01 -5.129218e-03
1.286817e-01 -5.124580e-03
1.289317e-01 -5.118832e-03
1.291817e-01 -5.111963e-03
1.294317e-01 -5.103962e-03
1.296817e-01 -5.094821e-03
1.299317e-01 -5.084527e-03
1.301817e-01 -5.073072e-03
1.304317e-01 -5.060450e-03
1.306817e-01 -5.046652e-03
1.309317e-01 -5.031673e-03
1.311817e-01 -5.015507e-03
1.314317e-01 -4.998147e-03
1.316817e-01 -4.979588e-03
1.319317e-01 -4.959821e-03
1.321817e-01 -4.938840e-03
1.324317e-01 -4.916641e-03
1.326817e-01 -4.893218e-03
1.329317e-01 -4.868568e-03
1.331817e-01 -4.842689e-03
1.334317e-01 -4.815578e-03
1.336817e-01 -4.787234e-03
1.339317e-01 -4.757653e-03
1.341817e-01 -4.726834e-03
1.344317e-01 -4.694775e-03
1.346817e-01 -4.661474e-03
1.349317e-01 -4.626931e-03
1.351817e-01 -4.591147e-03
1.354317e-01 -4.554123e-03
1.356817e-01 -4.515861e-03
1.359317e-01 -4.476365e-03
1.361817e-01 -4.435636e-03
1.364317e-01 -4.393678e-03
1.366817e-01 -4.350493e-03
1.369317e-01 -4.306084e-03