-1.388183e-01 0.000000e+00
-1.385683e-01 0.000000e+00
-1.383183e-01 0.000000e+00
-1.380683e-01 0.000000e+00
-1.378183e-01 0.000000e+00
-1.375683e-01 0.000000e+00
-1.373183e-01 0.000000e+00
-1.370683e-01 0.000000e+00
-1.368183e-01 0.000000e+00
-1.365683e-01 0.000000e+00
-1.363183e-01 0.000000e+00
-1.360683e-01 0.000000e+00
-1.358183e-01 0.000000e+00
-1.355683e-01 0.000000e+00
-1.353183e-01 0.000000e+00
-1.350683e-01 0.000000e+00
-1.348183e-01 0.000000e+00
-1.345683e-01 0.000000e+00
-1.343183e-01 0.000000e+00
-1.340683e-01 0.000000e+00
-1.338183e-01 0.000000e+00
-1.335683e-01 0.000000e+00
-1.333183e-01 0.000000e+00
-1.330683e-01 0.000000e+00
-1.328183e-01 0.000000e+00
-1.325683e-01 0.000000e+00
-1.323183e-01 0.000000e+00
-1.320683e-01 0.000000e+00
-1.318183e-01 0.000000e+00
-1.315683e-01 0.000000e+00
-1.313183e-01 0.000000e+00
-1.310683e-01 0.000000e+00
-1.308183e-01 0.000000e+00
-1.305683e-01 0.000000e+00
-1.303183e-01 0.000000e+00
-1.300683e-01 0.000000e+00
-1.298183e-01 0.000000e+00
-1.295683e-01 0.000000e+00
-1.293183e-01 0.000000e+00
-1.290683e-01 0.000000e+00
-1.288183e-01 0.000000e+00
-1.285683e-01 0.000000e+00
-1.283183e-01 0.000000e+00
-1.280683e-01 0.000000e+00
-1.278183e-01 0.000000e+00
-1.275683e-01 0.000000e+00
-1.273183e-01 0.000000e+00
-1.270683e-01 0.000000e+00
-1.268183e-01 0.000000e+00
-1.265683e-01 0.000000e+00
-1.263183e-01 0.000000e+00
-1.260683e-01 0.000000e+00
-1.258183e-01 0.000000e+00
-1.255683e-01 0.000000e+00
-1.253183e-01 0.000000e+00
-1.250683e-01 0.000000e+00
-1.248183e-01 0.000000e+00
-1.245683e-01 0.000000e+00
-1.243183e-01 0.000000e+00
-1.240683e-01 0.000000e+00
-1.238183e-01 0.000000e+00
-1.235683e-01 0.000000e+00
-1.233183e-01 0.000000e+00
-1.230683e-01 0.000000e+00
-1.228183e-01 0.000000e+00
-1.225683e-01 0.000000e+00
-1.223183e-01 0.000000e+00
-1.220683e-01 0.000000e+00
-1.218183e-01 0.000000e+00
-1.215683e-01 0.000000e+00
-1.213183e-01 0.000000e+00
-1.210683e-01 0.000000e+00
-1.208183e-01 0.000000e+00
-1.205683e-01 0.000000e+00
-1.203183e-01 0.000000e+00
-1.200683e-01 0.000000e+00
-1.198183e-01 0.000000e+00
-1.195683e-01 0.000000e+00
-1.193183e-01 0.000000e+00
-1.190683e-01 0.000000e+00
-1.188183e-01 0.000000e+00
-1.185683e-01 0.000000e+00
-1.183183e-01 0.000000e+00
-1.180683e-01 0.000000e+00
-1.178183e-01 0.000000e+00
-1.175683e-01 0.000000e+00
-1.173183e-01 0.000000e+00
-1.170683e-01 -1.401298e-45
-1.168183e-01 -2.802597e-45
-1.165683e-01 -1.401298e-45
-1.163183e-01 2.802597e-45
-1.160683e-01 1.261169e-44
-1.158183e-01 2.802597e-44
-1.155683e-01 4.484155e-44
-1.153183e-01 4.203895e-44
-1.150683e-01 -9.809089e-45
-1.148183e-01 -1.527415e-43
-1.145683e-01 -4.035740e-43
-1.143183e-01 -6.950440e-43
-1.140683e-01 -8.043453e-43
-1.138183e-01 -3.054831e-43
-1.135683e-01 1.359260e-42
-1.133183e-01 4.557023e-42
-1.130683e-01 8.801556e-42
-1.128183e-01 1.184938e-41
-1.125683e-01 8.973915e-42
-1.123183e-01 -6.616931e-42
-1.120683e-01 -4.088709e-41
-1.118183e-01 -9.249130e-41
-1.115683e-01 -1.430670e-40
-1.113183e-01 -1.479995e-40
-1.110683e-01 -3.607082e-41
-1.108183e-01 2.691796e-40
-1.105683e-01 7.942490e-40
-1.103183e-01 1.425125e-39
-1.100683e-01 1.806819e-39
-1.098183e-01 1.299245e-39
-1.095683e-01 -9.029435e-40
-1.093183e-01 -5.367197e-39
-1.090683e-01 -1.168614e-38
-1.088183e-01 -1.754210e-38
-1.085683e-01 -1.802644e-38
-1.083183e-01 -6.023148e-39
-1.080683e-01 2.533635e-38
-1.078183e-01 7.745557e-38
-1.075683e-01 1.387677e-37
-1.073183e-01 1.775709e-37
-1.070683e-01 1.405938e-37
-1.068183e-01 -3.523567e-38
-1.065683e-01 -3.910904e-37
-1.063183e-01 -8.940913e-37
-1.060683e-01 -1.377250e-36
-1.058183e-01 -1.502853e-36
-1.055683e-01 -7.981592e-37
-1.053183e-01 1.183364e-36
-1.050683e-01 4.548907e-36
-1.048183e-01 8.644960e-36
-1.045683e-01 1.168376e-35
-1.043183e-01 1.070063e-35
-1.040683e-01 2.196022e-36
-1.038183e-01 -1.625874e-35
-1.035683e-01 -4.349638e-35
-1.033183e-01 -7.195785e-35
-1.030683e-01 -8.604306e-35
-1.028183e-01 -6.366817e-35
-1.025683e-01 1.689882e-35
-1.023183e-01 1.641044e-34
-1.020683e-01 3.560083e-34
-1.018183e-01 5.251561e-34
-1.015683e-01 5.558171e-34
-1.013183e-01 3.061405e-34
-1.010683e-01 -3.357855e-34
-1.008183e-01 -1.363730e-33
-1.005683e-01 -2.554756e-33
-1.003183e-01 -3.405875e-33
-1.000683e-01 -3.170022e-33
-9.981829e-02 -1.054022e-33
-9.956829e-02 3.395945e-33
-9.931830e-02 9.774936e-33
-9.906829e-02 1.633672e-32
-9.881829e-02 1.983050e-32
-9.856829e-02 1.599695e-32
-9.831829e-02 9.741836e-34
-9.806830e-02 -2.641124e-32
-9.781829e-02 -6.197132e-32
-9.756829e-02 -9.418636e-32
-9.731829e-02 -1.044630e-31
-9.706829e-02 -7.114721e-32
-9.681829e-02 2.197602e-32
-9.656829e-02 1.736736e-31
-9.631829e-02 3.531977e-31
-9.606829e-02 4.940585e-31
-9.581830e-02 5.008431e-31
-9.556829e-02 2.748820e-31
-9.531829e-02 -2.406365e-31
-9.506829e-02 -1.004594e-30
-9.481829e-02 -1.830255e-30
-9.456830e-02 -2.374615e-30
-9.431829e-02 -2.194254e-30
-9.406829e-02 -8.857624e-31
-9.381829e-02 1.700487e-30
-9.356830e-02 5.225096e-30
-9.331829e-02 8.699018e-30
-9.306829e-02 1.051911e-29
-9.281829e-02 8.807826e-30
-9.256829e-02 2.091275e-30
-9.231830e-02 -9.784142e-30
-9.206829e-02 -2.476682e-29
-9.181829e-02 -3.816486e-29
-9.156829e-02 -4.312929e-29
-9.131829e-02 -3.238721e-29
-9.106829e-02 -1.195322e-30
-9.081829e-02 4.909062e-29
-9.056829e-02 1.080346e-28
-9.031829e-02 1.553932e-28
-9.006830e-02 1.642418e-28
-8.981829e-02 1.087684e-28
-8.956829e-02 -2.400751e-29
-8.931829e-02 -2.215177e-28
-8.906829e-02 -4.368390e-28
-8.881830e-02 -5.897232e-28
-8.856829e-02 -5.823187e-28
-8.831829e-02 -3.308592e-28
-8.806829e-02 1.917257e-28
-8.781829e-02 9.144395e-28
-8.756829e-02 1.646258e-27
-8.731829e-02 2.092780e-27
-8.706829e-02 1.924441e-27
-8.681829e-02 8.939663e-28
-8.656830e-02 -1.020345e-27
-8.631829e-02 -3.492484e-27
-8.606829e-02 -5.808270e-27
-8.581829e-02 -6.963322e-27
-8.556829e-02 -5.927197e-27
-8.531829e-02 -2.046138e-27
-8.506829e-02 4.513043e-27
-8.481829e-02 1.243834e-26
-8.456829e-02 1.925482e-26
-8.431830e-02 2.176460e-26
-8.406829e-02 1.698035e-26
-8.381829e-02 3.404217e-27
-8.356829e-02 -1.770006e-26
-8.331829e-02 -4.155353e-26
-8.306830e-02 -6.015704e-26
-8.281829e-02 -6.398810e-26
-8.256829e-02 -4.504489e-26
-8.231829e-02 -6.250983e-28
-8.206829e-02 6.332054e-26
-8.181829e-02 1.307660e-25
-8.156829e-02 1.774956e-25
-8.131829e-02 1.769670e-25
-8.106829e-02 1.095358e-25
-8.081830e-02 -2.713071e-26
-8.056829e-02 -2.100074e-25
-8.031829e-02 -3.890977e-25
-8.006829e-02 -4.955143e-25
-7.981829e-02 -4.600465e-25
-7.956829e-02 -2.392867e-25
-7.931829e-02 1.576954e-25
-7.906829e-02 6.521006e-25
-7.881829e-02 1.097856e-24
-7.856829e-02 1.310494e-24
-7.831829e-02 1.121681e-24
-7.806829e-02 4.484547e-25
-7.781829e-02 -6.433208e-25
-7.756829e-02 -1.907685e-24
-7.731830e-02 -2.943073e-24
-7.706829e-02 -3.284224e-24
-7.681829e-02 -2.551622e-24
-7.656829e-02 -6.236533e-25
-7.631829e-02 2.225062e-24
-7.606829e-02 5.282881e-24
-7.581829e-02 7.508089e-24
-7.556829e-02 7.796129e-24
-7.531829e-02 5.364178e-24
-7.506829e-02 1.508929e-25
-7.481829e-02 -6.910775e-24
-7.456829e-02 -1.389407e-23
-7.431829e-02 -1.824449e-23
-7.406829e-02 -1.750045e-23
-7.381829e-02 -1.022317e-23
-7.356829e-02 3.136707e-24
-7.331829e-02 1.977635e-23
-7.306829e-02 3.478514e-23
-7.281829e-02 4.223740e-23
-7.256829e-02 3.701354e-23
-7.231829e-02 1.691256e-23
-7.206829e-02 -1.561442e-23
-7.181829e-02 -5.286886e-23
-7.156829e-02 -8.302415e-23
-7.131829e-02 -9.309454e-23
-7.106829e-02 -7.324837e-23
-7.081829e-02 -2.132329e-23
-7.056829e-02 5.403586e-23
-7.031829e-02 1.331730e-22
-7.006829e-02 1.891187e-22
-6.981829e-02 1.950502e-22
-6.956829e-02 1.339269e-22
-6.931829e-02 7.493850e-24
-6.906829e-02 -1.587691e-22
-6.881829e-02 -3.177602e-22
-6.856829e-02 -4.112178e-22
-6.831829e-02 -3.872048e-22
-6.806829e-02 -2.204255e-22
-6.781829e-02 7.115755e-23
-6.756829e-02 4.203693e-22
-6.731829e-02 7.206923e-22
-6.706829e-02 8.529340e-22
-6.681829e-02 7.238645e-22
-6.656829e-02 3.064020e-22
-6.631829e-02 -3.325550e-22
-6.606829e-02 -1.029916e-21
-6.581829e-02 -1.557655e-21
-6.556829e-02 -1.685554e-21
-6.531829e-02 -1.261564e-21
-6.506829e-02 -2.863641e-22
-6.481829e-02 1.046315e-21
-6.456829e-02 2.366530e-21
-6.431829e-02 3.211533e-21
-6.406829e-02 3.163694e-21
-6.381829e-02 2.008416e-21
-6.356829e-02 -1.381947e-22
-6.331829e-02 -2.785006e-21
-6.306829e-02 -5.141604e-21
-6.281829e-02 -6.318153e-21
-6.256829e-02 -5.610796e-21
-6.231829e-02 -2.793320e-21
-6.206829e-02 1.684671e-21
-6.181829e-02 6.686587e-21
-6.156829e-02 1.061445e-20
-6.131829e-02 1.185138e-20
-6.106829e-02 9.317661e-21
-6.081829e-02 2.975784e-21
-6.056829e-02 -5.905294e-21
-6.031829e-02 -1.487659e-20
-6.006829e-02 -2.087583e-20
-5.981829e-02 -2.114066e-20
-5.956829e-02 -1.423501e-20
-5.931829e-02 -8.551246e-22
-5.906829e-02 1.591409e-20
-5.881829e-02 3.110982e-20
-5.856829e-02 3.916840e-20
-5.831829e-02 3.570406e-20
-5.806829e-02 1.928784e-20
-5.781829e-02 -7.392738e-21
-5.756829e-02 -3.752887e-20
-5.731829e-02 -6.160724e-20
-5.706829e-02 -7.007081e-20
-5.681829e-02 -5.658894e-20
-5.656829e-02 -2.093728e-20
-5.631829e-02 2.958715e-20
-5.606829e-02 8.102347e-20
-5.581829e-02 1.160803e-19
-5.556829e-02 1.193271e-19
-5.531829e-02 8.286533e-20
-5.506829e-02 1.063239e-20
-5.481829e-02 -8.042945e-20
-5.456829e-02 -1.634078e-19
-5.431829e-02 -2.085005e-19
-5.406829e-02 -1.925572e-19
-5.381829e-02 -1.083491e-19
-5.356829e-02 2.969246e-20
-5.331829e-02 1.859269e-19
-5.306829e-02 3.112766e-19
-5.281829e-02 3.571689e-19
-5.256829e-02 2.921150e-19
-5.231829e-02 1.158164e-19
-5.206829e-02 -1.344840e-19
-5.181829e-02 -3.891482e-19
-5.156829e-02 -5.632988e-19
-5.131829e-02 -5.825428e-19
-5.106829e-02 -4.101736e-19
-5.081829e-02 -6.691418e-20
-5.056829e-02 3.649328e-19
-5.031829e-02 7.574049e-19
-5.006829e-02 9.712650e-19
-4.981829e-02 9.008141e-19
-4.956829e-02 5.158879e-19
-4.931829e-02 -1.137598e-19
-4.906829e-02 -8.231132e-19
-4.881829e-02 -1.389600e-18
-4.856829e-02 -1.597289e-18
-4.831829e-02 -1.310555e-18
-4.806829e-02 -5.345078e-19
-4.781829e-02 5.609775e-19
-4.756829e-02 1.668229e-18
-4.731829e-02 2.419899e-18
-4.706829e-02 2.501435e-18
-4.681829e-02 1.765809e-18
-4.656829e-02 3.126798e-19
-4.631829e-02 -1.501094e-18
-4.606829e-02 -3.135390e-18
-4.581829e-02 -4.015104e-18
-4.556829e-02 -3.716125e-18
-4.531829e-02 -2.133249e-18
-4.506829e-02 4.293642e-19
-4.481829e-02 3.289118e-18
-4.456829e-02 5.547754e-18
-4.431829e-02 6.353875e-18
-4.406829e-02 5.194210e-18
-4.381829e-02 2.122034e-18
-4.356829e-02 -2.165505e-18
-4.331829e-02 -6.451522e-18
-4.306829e-02 -9.317417e-18
-4.281829e-02 -9.580722e-18
-4.256829e-02 -6.726656e-18
-4.231829e-02 -1.188718e-18
-4.206829e-02 5.640394e-18
-4.181829e-02 1.171477e-17
-4.156829e-02 1.490825e-17
-4.131829e-02 1.370543e-17
-4.106829e-02 7.801461e-18
-4.081829e-02 -1.604199e-18
-4.056829e-02 -1.196621e-17
-4.031829e-02 -2.002284e-17
-4.006829e-02 -2.276129e-17
-3.981829e-02 -1.845267e-17
-3.956829e-02 -7.421814e-18
-3.931829e-02 7.741922e-18
-3.906829e-02 2.269059e-17
-3.881829e-02 3.248186e-17
-3.856829e-02 3.311790e-17
-3.831829e-02 2.300568e-17
-3.806829e-02 3.844166e-18
-3.781829e-02 -1.943991e-17
-3.756829e-02 -3.983020e-17
-3.731829e-02 -5.021875e-17
-3.706829e-02 -4.572847e-17
-3.681829e-02 -2.564329e-17
-3.656829e-02 5.745123e-18
-3.631829e-02 3.981648e-17
-3.606829e-02 6.582249e-17
-3.581829e-02 7.410386e-17
-3.556829e-02 5.941612e-17
-3.531829e-02 2.327849e-17
-3.506829e-02 -2.555990e-17
-3.481829e-02 -7.296125e-17
-3.456829e-02 -1.032656e-16
-3.431829e-02 -1.042042e-16
-3.406829e-02 -7.138323e-17
-3.381829e-02 -1.081658e-17
-3.356829e-02 6.160095e-17
-3.331829e-02 1.239245e-16
-3.306829e-02 1.544987e-16
-3.281829e-02 1.390644e-16
-3.256829e-02 7.641785e-17
-3.231829e-02 -1.943561e-17
-3.206829e-02 -1.218047e-16
-3.181829e-02 -1.983076e-16
-3.156829e-02 -2.206733e-16
-3.131829e-02 -1.744900e-16
-3.106829e-02 -6.572679e-17
-3.081829e-02 7.853466e-17
-3.056829e-02 2.161513e-16
-3.031829e-02 3.016533e-16
-3.006829e-02 3.006147e-16
-2.981829e-02 2.022441e-16
-2.956829e-02 2.593268e-17
-2.931829e-02 -1.811911e-16
-2.906829e-02 -3.560280e-16
-2.881829e-02 -4.379609e-16
-2.856829e-02 -3.888363e-16
-2.831829e-02 -2.081342e-16
-2.806829e-02 6.216340e-17
-2.781828e-02 3.458972e-16
-2.756829e-02 5.531689e-16
-2.731829e-02 6.077359e-16
-2.706829e-02 4.733639e-16
-2.681829e-02 1.704058e-16
-2.656829e-02 -2.239247e-16
-2.631829e-02 -5.936454e-16
-2.606829e-02 -8.168327e-16
-2.581829e-02 -8.042496e-16
-2.556829e-02 -5.320582e-16
-2.531829e-02 -5.721162e-17
-2.506829e-02 4.914249e-16
-2.481829e-02 9.461940e-16
-2.456829e-02 1.150213e-15
-2.431829e-02 1.009113e-15
-2.406829e-02 5.286725e-16
-2.381829e-02 -1.755911e-16
-2.356829e-02 -9.030981e-16
-2.331829e-02 -1.423134e-15
-2.306829e-02 -1.545651e-15
-2.281829e-02 -1.186968e-15
-2.256829e-02 -4.086270e-16
-2.231829e-02 5.862851e-16
-2.206829e-02 1.502729e-15
-2.181829e-02 2.038336e-15
-2.156829e-02 1.979806e-15
-2.131829e-02 1.281175e-15
-2.106829e-02 9.679871e-17
-2.081829e-02 -1.246466e-15
-2.056829e-02 -2.335561e-15
-2.031828e-02 -2.794455e-15
-2.006829e-02 -2.408715e-15
-1.981829e-02 -1.211564e-15
-1.956829e-02 5.004793e-16
-1.931829e-02 2.234730e-15
-1.906829e-02 3.439448e-15
-1.881829e-02 3.674231e-15
-1.856828e-02 2.762572e-15
-1.831829e-02 8.756881e-16
-1.806829e-02 -1.486247e-15
-1.781829e-02 -3.620099e-15
-1.756829e-02 -4.823485e-15
-1.731829e-02 -4.619040e-15
-1.706829e-02 -2.929409e-15
-1.681828e-02 -1.420593e-16
-1.656829e-02 2.967774e-15
-1.631829e-02 5.445687e-15
-1.606829e-02 6.444249e-15
-1.581829e-02 5.503215e-15
-1.556829e-02 2.733732e-15
-1.531829e-02 -1.161830e-15
-1.506829e-02 -5.056701e-15
-1.481829e-02 -7.717319e-15
-1.456829e-02 -8.185565e-15
-1.431829e-02 -6.109432e-15
-1.406829e-02 -1.911929e-15
-1.381829e-02 3.271123e-15
-1.356828e-02 7.886141e-15
-1.331829e-02 1.041700e-14
-1.306829e-02 9.870822e-15
-1.281829e-02 6.141646e-15
-1.256830e-02 1.255023e-16
-1.231828e-02 -6.473037e-15
-1.206829e-02 -1.160934e-14
-1.181829e-02 -1.351800e-14
-1.156829e-02 -1.129916e-14
-1.131828e-02 -5.283005e-15
-1.106828e-02 2.964348e-15
-1.081829e-02 1.102722e-14
-1.056829e-02 1.633103e-14
-1.031829e-02 1.694447e-14
-1.006828e-02 1.224947e-14
-9.818286e-03 3.252955e-15
-9.568289e-03 -7.588673e-15
-9.318292e-03 -1.702005e-14
-9.068280e-03 -2.194623e-14
-8.818284e-03 -2.042399e-14
-8.568287e-03 -1.237383e-14
-8.318290e-03 2.365805e-16
-8.068293e-03 1.384024e-14
-7.818282e-03 2.426087e-14
-7.568285e-03 2.797695e-14
-7.318288e-03 2.328444e-14
-7.068291e-03 1.097966e-14
-6.818295e-03 -5.689625e-15
-6.568283e-03 -2.185088e-14
-6.318286e-03 -3.241139e-14
-6.068289e-03 -3.364137e-14
-5.818292e-03 -2.445547e-14
-5.568281e-03 -6.957457e-15
-5.318284e-03 1.397638e-14
-5.068287e-03 3.202161e-14
-4.818290e-03 4.128696e-14
-4.568294e-03 3.820498e-14
-4.318282e-03 2.283382e-14
-4.068285e-03 -8.877227e-16
-3.818288e-03 -2.608959e-14
-3.568292e-03 -4.491659e-14
-3.318280e-03 -5.093330e-14
-3.068283e-03 -4.126233e-14
-2.818286e-03 -1.776055e-14
-2.568290e-03 1.320879e-14
-2.318293e-03 4.244458e-14
-2.068281e-03 6.059201e-14
-1.818284e-03 6.107785e-14
-1.568288e-03 4.238912e-14
-1.318291e-03 8.925040e-15
-1.068294e-03 -2.994606e-14
-8.182824e-04 -6.245999e-14
-5.682856e-04 -7.797310e-14
-3.182888e-04 -7.037778e-14
-6.829202e-05 -4.034334e-14
1.817197e-04 4.408813e-15
4.317164e-04 5.101416e-14
6.817132e-04 8.512490e-14
9.317100e-04 9.528018e-14
1.181707e-03 7.667934e-14
1.431718e-03 3.313073e-14
1.681715e-03 -2.355434e-14
1.931712e-03 -7.670669e-14
2.181709e-03 -1.096600e-13
2.431706e-03 -1.109399e-13
2.681717e-03 -7.815443e-14
2.931714e-03 -1.931494e-14
3.181711e-03 4.900790e-14
3.431708e-03 1.063060e-13
3.681719e-03 1.342673e-13
3.931716e-03 1.225985e-13
4.181713e-03 7.269840e-14
4.431710e-03 -2.092815e-15
4.681706e-03 -7.996051e-14
4.931718e-03 -1.369269e-13
5.181715e-03 -1.542139e-13
5.431712e-03 -1.244094e-13
5.681708e-03 -5.443102e-14
5.931720e-03 3.581978e-14
6.181717e-03 1.189552e-13
6.431714e-03 1.682724e-13
6.681710e-03 1.661884e-13
6.931707e-03 1.103249e-13
7.181719e-03 1.518073e-14
7.431716e-03 -9.138815e-14
7.681713e-03 -1.760900e-13
7.931709e-03 -2.103121e-13
8.181706e-03 -1.793854e-13
8.431718e-03 -8.806823e-14
8.681715e-03 3.968259e-14
8.931711e-03 1.669379e-13
9.181708e-03 2.543939e-13
9.431720e-03 2.723523e-13
9.681717e-03 2.103987e-13
9.931713e-03 8.170362e-14
1.018171e-02 -7.970234e-14
1.043171e-02 -2.281910e-13
1.068172e-02 -3.197994e-13
1.093172e-02 -3.256432e-13
1.118171e-02 -2.412982e-13
1.143171e-02 -8.909689e-14
1.168172e-02 8.769451e-14
1.193172e-02 2.373856e-13
1.218171e-02 3.154735e-13
1.243171e-02 2.986267e-13
1.268171e-02 1.926190e-13
1.293172e-02 3.147484e-14
1.318172e-02 -1.323276e-13
1.343171e-02 -2.438962e-13
1.368171e-02 -2.634905e-13
1.393171e-02 -1.801302e-13
1.418172e-02 -1.676137e-14
1.443172e-02 1.751106e-13
1.468171e-02 3.301956e-13
1.493171e-02 3.894808e-13
1.518172e-02 3.196110e-13
1.543172e-02 1.254889e-13
1.568171e-02 -1.482143e-13
1.593171e-02 -4.277460e-13
1.618171e-02 -6.305506e-13
1.643172e-02 -6.894426e-13
1.668172e-02 -5.736003e-13
1.693171e-02 -2.997236e-13
1.718171e-02 7.029566e-14
1.743171e-02 4.451397e-13
1.768172e-02 7.290601e-13
1.793171e-02 8.489507e-13
1.818171e-02 7.753984e-13
1.843171e-02 5.313788e-13
1.868172e-02 1.856787e-13
1.893172e-02 -1.673468e-13
1.918171e-02 -4.357409e-13
1.943171e-02 -5.571122e-13
1.968171e-02 -5.168618e-13
1.993172e-02 -3.515234e-13
2.018172e-02 -1.359847e-13
2.043171e-02 4.172174e-14
2.068171e-02 1.102575e-13
2.093172e-02 4.025344e-14
2.118172e-02 -1.437886e-13
2.143171e-02 -3.686155e-13
2.168171e-02 -5.337990e-13
2.193171e-02 -5.441492e-13
2.218172e-02 -3.418941e-13
2.243172e-02 7.040692e-14
2.268171e-02 6.247316e-13
2.293171e-02 1.202698e-12
2.318171e-02 1.667360e-12
2.343172e-02 1.902697e-12
2.368172e-02 1.849153e-12
2.393171e-02 1.524487e-12
2.418171e-02 1.022445e-12
2.443172e-02 4.888163e-13
2.468172e-02 8.147050e-14
2.493171e-02 -7.508812e-14
2.518171e-02 7.328026e-14
2.543171e-02 4.924979e-13
2.568172e-02 1.067154e-12
2.593172e-02 1.630846e-12
2.618171e-02 2.011375e-12
2.643171e-02 2.077162e-12
2.668172e-02 1.772075e-12
2.693172e-02 1.127418e-12
2.718171e-02 2.481586e-13
2.743171e-02 -7.221065e-13
2.768171e-02 -1.647333e-12
2.793172e-02 -2.441566e-12
2.818172e-02 -3.094508e-12
2.843171e-02 -3.671468e-12
2.868171e-02 -4.288880e-12
2.893171e-02 -5.070670e-12
2.918172e-02 -6.101090e-12
2.943172e-02 -7.387475e-12
2.968171e-02 -8.846097e-12
2.993171e-02 -1.031646e-11
3.018172e-02 -1.159980e-11
3.043172e-02 -1.251325e-11
3.068171e-02 -1.294124e-11
3.093171e-02 -1.287013e-11
3.118171e-02 -1.239457e-11
3.143172e-02 -1.169362e-11
3.168172e-02 -1.098364e-11
3.193171e-02 -1.046036e-11
3.218171e-02 -1.024775e-11
3.243172e-02 -1.037081e-11
3.268172e-02 -1.075781e-11
3.293172e-02 -1.127304e-11
3.318171e-02 -1.176819e-11
3.343171e-02 -1.213769e-11
3.368172e-02 -1.236066e-11
3.393172e-02 -1.251495e-11
3.418171e-02 -1.275776e-11
3.443171e-02 -1.328038e-11
3.468171e-02 -1.424792e-11
3.493172e-02 -1.574240e-11
3.518172e-02 -1.773023e-11
3.543171e-02 -2.005957e-11
3.568171e-02 -2.249236e-11
3.593172e-02 -2.476502e-11
3.618172e-02 -2.665399e-11
3.643171e-02 -2.803498e-11
3.668171e-02 -2.891128e-11
3.693171e-02 -2.941175e-11
3.718172e-02 -2.975121e-11
3.743172e-02 -3.016839e-11
3.768171e-02 -3.086184e-11
3.793171e-02 -3.193935e-11
3.818171e-02 -3.339438e-11
3.843172e-02 -3.512119e-11
3.868172e-02 -3.695665e-11
3.893171e-02 -3.873616e-11
3.918171e-02 -4.035055e-11
3.943172e-02 -4.177828e-11
3.968172e-02 -4.309332e-11
3.993171e-02 -4.443664e-11
4.018171e-02 -4.596604e-11
4.043171e-02 -4.780190e-11
4.068172e-02 -4.997764e-11
4.093172e-02 -5.242789e-11
4.118171e-02 -5.499779e-11
4.143171e-02 -5.748595e-11
4.168172e-02 -5.969875e-11
4.193172e-02 -6.151316e-11
4.218172e-02 -6.291736e-11
4.243171e-02 -6.401812e-11
4.268171e-02 -6.501599e-11
4.293172e-02 -6.616119e-11
4.318172e-02 -6.769262e-11
4.343171e-02 -6.978067e-11
4.368171e-02 -7.249222e-11
4.393171e-02 -7.578839e-11
4.418172e-02 -7.955257e-11
4.443172e-02 -8.362760e-11
4.468171e-02 -8.787130e-11
4.493171e-02 -9.219357e-11
4.518172e-02 -9.657489e-11
4.543172e-02 -1.010469e-10
4.568172e-02 -1.056782e-10
4.593171e-02 -1.105236e-10
4.618171e-02 -1.155806e-10
4.643172e-02 -1.207810e-10
4.668172e-02 -1.259916e-10
4.693171e-02 -1.310439e-10
4.718171e-02 -1.357784e-10
4.743172e-02 -1.401023e-10
4.768172e-02 -1.440339e-10
4.793172e-02 -1.477102e-10
4.818171e-02 -1.513718e-10
4.843171e-02 -1.553397e-10
4.868172e-02 -1.599419e-10
4.893172e-02 -1.654629e-10
4.918171e-02 -1.720851e-10
4.943171e-02 -1.798759e-10
4.968171e-02 -1.887687e-10
4.993172e-02 -1.985972e-10
5.018172e-02 -2.091294e-10
5.043171e-02 -2.201097e-10
5.068171e-02 -2.312915e-10
5.093172e-02 -2.424471e-10
5.118172e-02 -2.534033e-10
5.143172e-02 -2.640342e-10
5.168171e-02 -2.742372e-10
5.193171e-02 -2.839537e-10
5.218172e-02 -2.931667e-10
5.243172e-02 -3.019078e-10
5.268171e-02 -3.102771e-10
5.293171e-02 -3.184486e-10
5.318171e-02 -3.266618e-10
5.343172e-02 -3.352175e-10
5.368172e-02 -3.444526e-10
5.393171e-02 -3.547100e-10
5.418171e-02 -3.662876e-10
5.443172e-02 -3.793994e-10
5.468172e-02 -3.941608e-10
5.493172e-02 -4.105556e-10
5.518171e-02 -4.284649e-10
5.543171e-02 -4.476820e-10
5.568172e-02 -4.679069e-10
5.593172e-02 -4.888273e-10
5.618171e-02 -5.101060e-10
5.643171e-02 -5.314195e-10
5.668172e-02 -5.525031e-10
5.693172e-02 -5.731731e-10
5.718172e-02 -5.933091e-10
5.743171e-02 -6.128793e-10
5.768171e-02 -6.319601e-10
5.793172e-02 -6.507347e-10
5.818172e-02 -6.694604e-10
5.843171e-02 -6.884739e-10
5.868171e-02 -7.081499e-10
5.893171e-02 -7.288533e-10
5.918172e-02 -7.508825e-10
5.943172e-02 -7.745040e-10
5.968171e-02 -7.998916e-10
5.993171e-02 -8.270994e-10
6.018172e-02 -8.561207e-10
6.043172e-02 -8.868504e-10
6.068172e-02 -9.191330e-10
6.093171e-02 -9.528055e-10
6.118171e-02 -9.876793e-10
6.143172e-02 -1.023583e-09
6.168172e-02 -1.060267e-09
6.193171e-02 -1.097543e-09
6.218171e-02 -1.135226e-09
6.243172e-02 -1.173186e-09
6.268172e-02 -1.211334e-09
6.293172e-02 -1.249651e-09
6.318171e-02 -1.288261e-09
6.343171e-02 -1.327394e-09
6.368172e-02 -1.367328e-09
6.393172e-02 -1.408426e-09
6.418172e-02 -1.451079e-09
6.443171e-02 -1.495593e-09
6.468171e-02 -1.542216e-09
6.493172e-02 -1.591039e-09
6.518172e-02 -1.642036e-09
6.543171e-02 -1.695136e-09
6.568171e-02 -1.750161e-09
6.593172e-02 -1.806889e-09
6.618172e-02 -1.865158e-09
6.643172e-02 -1.924805e-09
6.668171e-02 -1.985776e-09
6.693171e-02 -2.048065e-09
6.718172e-02 -2.111652e-09
6.743172e-02 -2.176577e-09
6.768171e-02 -2.242925e-09
6.793171e-02 -2.310738e-09
6.818172e-02 -2.379944e-09
6.843172e-02 -2.450649e-09
6.868172e-02 -2.522967e-09
6.893171e-02 -2.597046e-09
6.918171e-02 -2.673034e-09
6.943172e-02 -2.751178e-09
6.968172e-02 -2.831693e-09
6.993172e-02 -2.914758e-09
7.018171e-02 -3.000353e-09
7.043171e-02 -3.088435e-09
7.068172e-02 -3.178820e-09
7.093172e-02 -3.271245e-09
7.118171e-02 -3.365448e-09
7.143171e-02 -3.461217e-09
7.168172e-02 -3.558346e-09
7.193172e-02 -3.656858e-09
7.218172e-02 -3.756855e-09
7.243171e-02 -3.858618e-09
7.268171e-02 -3.962505e-09
7.293172e-02 -4.068859e-09
7.318172e-02 -4.178156e-09
7.343172e-02 -4.290572e-09
7.368171e-02 -4.406417e-09
7.393171e-02 -4.525824e-09
7.418172e-02 -4.648979e-09
7.443172e-02 -4.775690e-09
7.468171e-02 -4.906037e-09
7.493171e-02 -5.039908e-09
7.518172e-02 -5.177240e-09
7.543172e-02 -5.317728e-09
7.568172e-02 -5.461109e-09
7.593171e-02 -5.607199e-09
7.618171e-02 -5.755661e-09
7.643172e-02 -5.906145e-09
7.668172e-02 -6.058534e-09
7.693172e-02 -6.212695e-09
7.718171e-02 -6.368725e-09
7.743172e-02 -6.526538e-09
7.768172e-02 -6.686352e-09
7.793172e-02 -6.848613e-09
7.818171e-02 -7.013555e-09
7.843171e-02 -7.181546e-09
7.868172e-02 -7.352954e-09
7.893172e-02 -7.527942e-09
7.918172e-02 -7.706788e-09
7.943171e-02 -7.889624e-09
7.968171e-02 -8.076390e-09
7.993172e-02 -8.267234e-09
8.018172e-02 -8.462208e-09
8.043171e-02 -8.661091e-09
8.068171e-02 -8.863915e-09
8.093172e-02 -9.070609e-09
8.118172e-02 -9.281048e-09
8.143172e-02 -9.494943e-09
8.168171e-02 -9.712323e-09
8.193171e-02 -9.933257e-09
8.218172e-02 -1.015758e-08
8.243172e-02 -1.038551e-08
8.268172e-02 -1.061676e-08
8.293171e-02 -1.085152e-08
8.318172e-02 -1.108989e-08
8.343172e-02 -1.133187e-08
8.368172e-02 -1.157751e-08
8.393171e-02 -1.182648e-08
8.418171e-02 -1.207868e-08
8.443172e-02 -1.233405e-08
8.468172e-02 -1.259241e-08
8.493172e-02 -1.285346e-08
8.518171e-02 -1.311694e-08
8.543171e-02 -1.338268e-08
8.568172e-02 -1.365059e-08
8.593172e-02 -1.392042e-08
8.618172e-02 -1.419234e-08
8.643171e-02 -1.446634e-08
8.668172e-02 -1.474250e-08
8.693172e-02 -1.502100e-08
8.718172e-02 -1.530208e-08
8.743171e-02 -1.558629e-08
8.768171e-02 -1.587387e-08
8.793172e-02 -1.616515e-08
8.818172e-02 -1.646078e-08
8.843172e-02 -1.676101e-08
8.868171e-02 -1.706616e-08
8.893172e-02 -1.737588e-08
8.918172e-02 -1.769000e-08
8.943172e-02 -1.800802e-08
8.968171e-02 -1.832947e-08
8.993171e-02 -1.865374e-08
9.018172e-02 -1.898005e-08
9.043172e-02 -1.930778e-08
9.068172e-02 -1.963646e-08
9.093171e-02 -1.996582e-08
9.118171e-02 -2.029564e-08
9.143172e-02 -2.062559e-08
9.168172e-02 -2.095545e-08
9.193172e-02 -2.128483e-08
9.218171e-02 -2.161357e-08
9.243172e-02 -2.194203e-08
9.268172e-02 -2.227046e-08
9.293172e-02 -2.259922e-08
9.318171e-02 -2.292844e-08
9.343171e-02 -2.325809e-08
9.368172e-02 -2.358889e-08
9.393172e-02 -2.392092e-08
9.418172e-02 -2.425456e-08
9.443171e-02 -2.458949e-08
9.468171e-02 -2.492568e-08
9.493172e-02 -2.526290e-08
9.518172e-02 -2.560037e-08
9.543172e-02 -2.593765e-08
9.568171e-02 -2.627418e-08
9.593172e-02 -2.660963e-08
9.618172e-02 -2.694333e-08
9.643172e-02 -2.727483e-08
9.668171e-02 -2.760297e-08
9.693171e-02 -2.792716e-08
9.718172e-02 -2.824748e-08
9.743172e-02 -2.856311e-08
9.768172e-02 -2.887318e-08
9.793171e-02 -2.917737e-08
9.818172e-02 -2.947550e-08
9.843172e-02 -2.976663e-08
9.868172e-02 -3.005061e-08
9.893171e-02 -3.032756e-08
9.918171e-02 -3.059782e-08
9.943172e-02 -3.086177e-08
9.968172e-02 -3.111980e-08
9.993172e-02 -3.137195e-08
1.001817e-01 -3.161909e-08
1.004317e-01 -3.186054e-08
1.006817e-01 -3.209662e-08
1.009317e-01 -3.232771e-08
1.011817e-01 -3.255342e-08
1.014317e-01 -3.277370e-08
1.016817e-01 -3.298840e-08
1.019317e-01 -3.319667e-08
1.021817e-01 -3.339787e-08
1.024317e-01 -3.359113e-08
1.026817e-01 -3.377559e-08
1.029317e-01 -3.394950e-08
1.031817e-01 -3.411218e-08
1.034317e-01 -3.426236e-08
1.036817e-01 -3.439930e-08
1.039317e-01 -3.452172e-08
1.041817e-01 -3.462916e-08
1.044317e-01 -3.472076e-08
1.046817e-01 -3.479615e-08
1.049317e-01 -3.485503e-08
1.051817e-01 -3.489751e-08
1.054317e-01 -3.492336e-08
1.056817e-01 -3.493264e-08
1.059317e-01 -3.492569e-08
1.061817e-01 -3.490305e-08
1.064317e-01 -3.486448e-08
1.066817e-01 -3.480998e-08
1.069317e-01 -3.474001e-08
1.071817e-01 -3.465379e-08
1.074317e-01 -3.455152e-08
1.076817e-01 -3.443263e-08
1.079317e-01 -3.429659e-08
1.081817e-01 -3.414279e-08
1.084317e-01 -3.397032e-08
1.086817e-01 -3.377836e-08
1.089317e-01 -3.356619e-08
1.091817e-01 -3.333241e-08
1.094317e-01 -3.307594e-08
1.096817e-01 -3.279608e-08
1.099317e-01 -3.249139e-08
1.101817e-01 -3.216150e-08
1.104317e-01 -3.180583e-08
1.106817e-01 -3.142360e-08
1.109317e-01 -3.101449e-08
1.111817e-01 -3.057749e-08
1.114317e-01 -3.011263e-08
1.116817e-01 -2.961989e-08
1.119317e-01 -2.909897e-08
1.121817e-01 -2.854975e-08
1.124317e-01 -2.797214e-08
1.126817e-01 -2.736709e-08
1.129317e-01 -2.673435e-08
1.131817e-01 -2.607372e-08
1.134317e-01 -2.538425e-08
1.136817e-01 -2.466567e-08
1.139317e-01 -2.391664e-08
1.141817e-01 -2.313766e-08
1.144317e-01 -2.232761e-08
1.146817e-01 -2.148653e-08
1.149317e-01 -2.061372e-08
1.151817e-01 -1.970941e-08
1.154317e-01 -1.877219e-08
1.156817e-01 -1.780089e-08
1.159317e-01 -1.679513e-08
1.161817e-01 -1.575402e-08
1.164317e-01 -1.467757e-08
1.166817e-01 -1.356533e-08
1.169317e-01 -1.241740e-08
1.171817e-01 -1.123344e-08
1.174317e-01 -1.001420e-08
1.176817e-01 -8.759115e-09
1.179317e-01 -7.469050e-09
1.181817e-01 -6.144182e-09
1.184317e-01 -4.783987e-09
1.186817e-01 -3.388903e-09
1.189317e-01 -1.958707e-09
1.191817e-01 -4.934648e-10
1.194317e-01 1.006823e-09
1.196817e-01 2.542367e-09
1.199317e-01 4.112811e-09
1.201817e-01 5.717418e-09
1.204317e-01 7.356362e-09
1.206817e-01 9.030030e-09
1.209317e-01 1.073837e-08
1.211817e-01 1.248183e-08
1.214317e-01 1.426075e-08
1.216817e-01 1.607550e-08
1.219317e-01 1.792705e-08
1.221817e-01 1.981519e-08
1.224317e-01 2.174001e-08
1.226817e-01 2.370111e-08
1.229317e-01 2.569795e-08
1.231817e-01 2.773012e-08
1.234317e-01 2.979714e-08
1.236817e-01 3.189848e-08
1.239317e-01 3.403355e-08
1.241817e-01 3.620240e-08
1.244317e-01 3.840439e-08
1.246817e-01 4.063894e-08
1.249317e-01 4.290574e-08
1.251817e-01 4.520410e-08
1.254317e-01 4.753292e-08
1.256817e-01 4.989143e-08
1.259317e-01 5.227898e-08
1.261817e-01 5.469511e-08
1.264317e-01 5.713948e-08
1.266817e-01 5.961168e-08
1.269317e-01 6.211167e-08
1.271817e-01 6.463954e-08
1.274317e-01 6.719516e-08
1.276817e-01 6.977817e-08
1.279317e-01 7.238829e-08
1.281817e-01 7.502479e-08
1.284317e-01 7.768681e-08
1.286817e-01 8.037332e-08
1.289317e-01 8.308319e-08
1.291817e-01 8.581526e-08
1.294317e-01 8.856824e-08
1.296817e-01 9.134076e-08
1.299317e-01 9.413120e-08
1.301817e-01 9.693776e-08
1.304317e-01 9.975869e-08
1.306817e-01 1.025916e-07
1.309317e-01 1.054345e-07
1.311817e-01 1.082850e-07
1.314317e-01 1.111410e-07
1.316817e-01 1.140007e-07
1.319317e-01 1.168623e-07
1.321817e-01 1.197242e-07
1.324317e-01 1.225857e-07
1.326817e-01 1.254455e-07
1.329317e-01 1.283031e-07
1.331817e-01 1.311576e-07
1.334317e-01 1.340086e-07
1.336817e-01 1.368546e-07
1.339317e-01 1.396954e-07
1.341817e-01 1.425307e-07
1.344317e-01 1.453596e-07
1.346817e-01 1.481816e-07
1.349317e-01 1.509957e-07
1.351817e-01 1.538013e-07
1.354317e-01 1.565960e-07
1.356817e-01 1.593790e-07
1.359317e-01 1.621483e-07
1.361817e-01 1.649008e-07
1.364317e-01 1.676343e-07
1.366817e-01 1.703456e-07
1.369317e-01 1.730322e-07
1.371817e-01 1.756901e-07
1.374317e-01 1.783168e-07
1.376817e-01 1.809079e-07