-1.388183e-01 0.000000e+00
-1.385683e-01 0.000000e+00
-1.383183e-01 0.000000e+00
-1.380683e-01 0.000000e+00
-1.378183e-01 0.000000e+00
-1.375683e-01 0.000000e+00
-1.373183e-01 0.000000e+00
-1.370683e-01 0.000000e+00
-1.368183e-01 0.000000e+00
-1.365683e-01 0.000000e+00
-1.363183e-01 0.000000e+00
-1.360683e-01 0.000000e+00
-1.358183e-01 0.000000e+00
-1.355683e-01 0.000000e+00
-1.353183e-01 0.000000e+00
-1.350683e-01 0.000000e+00
-1.348183e-01 0.000000e+00
-1.345683e-01 0.000000e+00
-1.343183e-01 0.000000e+00
-1.340683e-01 0.000000e+00
-1.338183e-01 0.000000e+00
-1.335683e-01 0.000000e+00
-1.333183e-01 0.000000e+00
-1.330683e-01 0.000000e+00
-1.328183e-01 0.000000e+00
-1.325683e-01 0.000000e+00
-1.323183e-01 0.000000e+00
-1.320683e-01 0.000000e+00
-1.318183e-01 0.000000e+00
-1.315683e-01 0.000000e+00
-1.313183e-01 0.000000e+00
-1.310683e-01 0.000000e+00
-1.308183e-01 0.000000e+00
-1.305683e-01 0.000000e+00
-1.303183e-01 0.000000e+00
-1.300683e-01 0.000000e+00
-1.298183e-01 0.000000e+00
-1.295683e-01 0.000000e+00
-1.293183e-01 0.000000e+00
-1.290683e-01 0.000000e+00
-1.288183e-01 0.000000e+00
-1.285683e-01 0.000000e+00
-1.283183e-01 0.000000e+00
-1.280683e-01 0.000000e+00
-1.278183e-01 0.000000e+00
-1.275683e-01 0.000000e+00
-1.273183e-01 0.000000e+00
-1.270683e-01 0.000000e+00
-1.268183e-01 0.000000e+00
-1.265683e-01 0.000000e+00
-1.263183e-01 0.000000e+00
-1.260683e-01 0.000000e+00
-1.258183e-01 0.000000e+00
-1.255683e-01 0.000000e+00
-1.253183e-01 0.000000e+00
-1.250683e-01 0.000000e+00
-1.248183e-01 0.000000e+00
-1.245683e-01 0.000000e+00
-1.243183e-01 0.000000e+00
-1.240683e-01 0.000000e+00
-1.238183e-01 0.000000e+00
-1.235683e-01 0.000000e+00
-1.233183e-01 0.000000e+00
-1.230683e-01 0.000000e+00
-1.228183e-01 0.000000e+00
-1.225683e-01 0.000000e+00
-1.223183e-01 0.000000e+00
-1.220683e-01 0.000000e+00
-1.218183e-01 0.000000e+00
-1.215683e-01 0.000000e+00
-1.213183e-01 0.000000e+00
-1.210683e-01 0.000000e+00
-1.208183e-01 0.000000e+00
-1.205683e-01 0.000000e+00
-1.203183e-01 0.000000e+00
-1.200683e-01 0.000000e+00
-1.198183e-01 -2.802597e-45
-1.195683e-01 -8.407791e-45
-1.193183e-01 -1.961818e-44
-1.190683e-01 -2.802597e-44
-1.188183e-01 -9.809089e-45
-1.185683e-01 7.286752e-44
-1.183183e-01 2.522337e-43
-1.180683e-01 5.044674e-43
-1.178183e-01 6.558077e-43
-1.175683e-01 2.802597e-43
-1.173183e-01 -1.303208e-42
-1.170683e-01 -4.705560e-42
-1.168183e-01 -9.572270e-42
-1.165683e-01 -1.304048e-41
-1.163183e-01 -8.119123e-42
-1.160683e-01 1.631672e-41
-1.158183e-01 7.080060e-41
-1.155683e-01 1.523968e-40
-1.153183e-01 2.228513e-40
-1.150683e-01 1.852432e-40
-1.148183e-01 -1.188862e-40
-1.145683e-01 -8.534973e-40
-1.143183e-01 -2.030120e-39
-1.140683e-01 -3.236052e-39
-1.138183e-01 -3.329648e-39
-1.135683e-01 -3.453640e-40
-1.133183e-01 7.966355e-39
-1.130683e-01 2.247690e-38
-1.128183e-01 3.970310e-38
-1.125683e-01 4.823705e-38
-1.123183e-01 2.690614e-38
-1.120683e-01 -5.115201e-38
-1.118183e-01 -2.034688e-37
-1.115683e-01 -4.095607e-37
-1.113183e-01 -5.737049e-37
-1.110683e-01 -4.985400e-37
-1.108183e-01 9.380054e-38
-1.105683e-01 1.446054e-36
-1.103183e-01 3.523064e-36
-1.100683e-01 5.668272e-36
-1.098183e-01 6.299242e-36
-1.095683e-01 2.928935e-36
-1.093183e-01 -7.092613e-36
-1.090683e-01 -2.478244e-35
-1.088183e-01 -4.672737e-35
-1.085683e-01 -6.214669e-35
-1.083183e-01 -5.180239e-35
-1.080683e-01 8.268862e-36
-1.078183e-01 1.352557e-34
-1.075683e-01 3.195224e-34
-1.073183e-01 5.003729e-34
-1.070683e-01 5.497794e-34
-1.068183e-01 2.841171e-34
-1.065683e-01 -4.733924e-34
-1.063183e-01 -1.766743e-33
-1.060683e-01 -3.333921e-33
-1.058183e-01 -4.451030e-33
-1.055683e-01 -3.914086e-33
-1.053183e-01 -3.124464e-34
-1.050683e-01 7.284406e-33
-1.048183e-01 1.824766e-32
-1.045683e-01 2.920823e-32
-1.043183e-01 3.341352e-32
-1.040683e-01 2.154555e-32
-1.038183e-01 -1.509480e-32
-1.035683e-01 -7.872621e-32
-1.033183e-01 -1.575733e-31
-1.030683e-01 -2.196732e-31
-1.028183e-01 -2.129082e-31
-1.025683e-01 -7.692392e-32
-1.023183e-01 2.293332e-31
-1.020683e-01 6.865371e-31
-1.018183e-01 1.172122e-30
-1.015683e-01 1.438641e-30
-1.013183e-01 1.143988e-30
-1.010683e-01 -3.921985e-32
-1.008183e-01 -2.229394e-30
-1.005683e-01 -5.093877e-30
-1.003183e-01 -7.653075e-30
-1.000683e-01 -8.276203e-30
-9.981829e-02 -5.026562e-30
-9.956829e-02 3.549583e-30
-9.931830e-02 1.726165e-29
-9.906829e-02 3.306770e-29
-9.881829e-02 4.442647e-29
-9.856829e-02 4.198152e-29
-9.831829e-02 1.623722e-29
-9.806830e-02 -3.765896e-29
-9.781829e-02 -1.139233e-28
-9.756829e-02 -1.911149e-28
-9.731829e-02 -2.313653e-28
-9.706829e-02 -1.873443e-28
-9.681829e-02 -1.901591e-29
-9.656829e-02 2.812417e-28
-9.631829e-02 6.617787e-28
-9.606829e-02 9.951929e-28
-9.581830e-02 1.087552e-27
-9.556829e-02 7.264369e-28
-9.531829e-02 -2.292427e-28
-9.506829e-02 -1.733126e-27
-9.481829e-02 -3.447494e-27
-9.456830e-02 -4.709565e-27
-9.431829e-02 -4.630073e-27
-9.406829e-02 -2.363062e-27
-9.381829e-02 2.470661e-27
-9.356830e-02 9.307908e-27
-9.331829e-02 1.630516e-26
-9.306829e-02 2.038185e-26
-9.281829e-02 1.786089e-26
-9.256829e-02 5.777304e-27
-9.231830e-02 -1.634027e-26
-9.206829e-02 -4.474496e-26
-9.181829e-02 -7.062314e-26
-9.156829e-02 -8.102504e-26
-9.131829e-02 -6.219747e-26
-9.106829e-02 -5.217076e-27
-9.081829e-02 8.727110e-26
-9.056829e-02 1.955809e-25
-9.031829e-02 2.819212e-25
-9.006830e-02 2.966825e-25
-8.981829e-02 1.933911e-25
-8.956829e-02 -4.944841e-26
-8.931829e-02 -4.053959e-25
-8.906829e-02 -7.853806e-25
-8.881830e-02 -1.042062e-24
-8.856829e-02 -1.001489e-24
-8.831829e-02 -5.228446e-25
-8.806829e-02 4.246586e-25
-8.781829e-02 1.691637e-24
-8.756829e-02 2.918447e-24
-8.731829e-02 3.578261e-24
-8.706829e-02 3.112034e-24
-8.681829e-02 1.144527e-24
-8.656830e-02 -2.269000e-24
-8.631829e-02 -6.453420e-24
-8.606829e-02 -1.008851e-23
-8.581829e-02 -1.143764e-23
-8.556829e-02 -8.857341e-24
-8.531829e-02 -1.511020e-24
-8.506829e-02 9.910603e-24
-8.481829e-02 2.275457e-23
-8.456829e-02 3.256627e-23
-8.431830e-02 3.405352e-23
-8.406829e-02 2.282833e-23
-8.381829e-02 -2.428444e-24
-8.356829e-02 -3.806495e-23
-8.331829e-02 -7.470176e-23
-8.306830e-02 -9.842976e-23
-8.281829e-02 -9.433615e-23
-8.256829e-02 -5.195747e-23
-8.231829e-02 2.868665e-23
-8.206829e-02 1.326317e-22
-8.181829e-02 2.295139e-22
-8.156829e-02 2.789834e-22
-8.131829e-02 2.422895e-22
-8.106829e-02 9.802064e-23
-8.081830e-02 -1.424859e-22
-8.056829e-02 -4.262431e-22
-8.031829e-02 -6.623270e-22
-8.006829e-02 -7.417974e-22
-7.981829e-02 -5.724961e-22
-7.956829e-02 -1.210482e-22
-7.931829e-02 5.514149e-22
-7.906829e-02 1.276075e-21
-7.881829e-02 1.799552e-21
-7.856829e-02 1.848272e-21
-7.831829e-02 1.224917e-21
-7.806829e-02 -8.803556e-23
-7.781829e-02 -1.854741e-21
-7.756829e-02 -3.581643e-21
-7.731830e-02 -4.609447e-21
-7.706829e-02 -4.301457e-21
-7.681829e-02 -2.291453e-21
-7.656829e-02 1.281708e-21
-7.631829e-02 5.646520e-21
-7.606829e-02 9.464496e-21
-7.581829e-02 1.113217e-20
-7.556829e-02 9.287866e-21
-7.531829e-02 3.403075e-21
-7.506829e-02 -5.734940e-21
-7.481829e-02 -1.586795e-20
-7.456829e-02 -2.360815e-20
-7.431829e-02 -2.531538e-20
-7.406829e-02 -1.836109e-20
-7.381829e-02 -2.435255e-21
-7.356829e-02 1.957733e-20
-7.331829e-02 4.161862e-20
-7.306829e-02 5.566070e-20
-7.281829e-02 5.402534e-20
-7.256829e-02 3.231698e-20
-7.231829e-02 -7.922338e-21
-7.206829e-02 -5.790645e-20
-7.181829e-02 -1.025535e-19
-7.156829e-02 -1.240424e-19
-7.131829e-02 -1.074754e-19
-7.106829e-02 -4.720899e-20
-7.081829e-02 4.826917e-20
-7.056829e-02 1.551514e-19
-7.031829e-02 2.383568e-19
-7.006829e-02 2.609023e-19
-6.981829e-02 1.967518e-19
-6.956829e-02 4.347793e-20
-6.931829e-02 -1.699437e-19
-6.906829e-02 -3.844703e-19
-6.881829e-02 -5.236219e-19
-6.856829e-02 -5.160629e-19
-6.831829e-02 -3.227809e-19
-6.806829e-02 3.970028e-20
-6.781829e-02 4.896117e-19
-6.756829e-02 8.910486e-19
-6.731829e-02 1.087688e-18
-6.706829e-02 9.532002e-19
-6.681829e-02 4.447436e-19
-6.656829e-02 -3.589047e-19
-6.631829e-02 -1.252516e-18
-6.606829e-02 -1.943623e-18
-6.581829e-02 -2.133513e-18
-6.556829e-02 -1.622068e-18
-6.531829e-02 -4.051415e-19
-6.506829e-02 1.272414e-18
-6.481829e-02 2.938714e-18
-6.456829e-02 4.003483e-18
-6.431829e-02 3.936976e-18
-6.406829e-02 2.473375e-18
-6.381829e-02 -2.277086e-19
-6.356829e-02 -3.529853e-18
-6.331829e-02 -6.424738e-18
-6.306829e-02 -7.795289e-18
-6.281829e-02 -6.783015e-18
-6.256829e-02 -3.154883e-18
-6.231829e-02 2.460635e-18
-6.206829e-02 8.584178e-18
-6.181829e-02 1.319919e-17
-6.156829e-02 1.433115e-17
-6.131829e-02 1.075139e-17
-6.106829e-02 2.586629e-18
-6.081829e-02 -8.403604e-18
-6.056829e-02 -1.905816e-17
-6.031829e-02 -2.559239e-17
-6.006829e-02 -2.477715e-17
-5.981829e-02 -1.519687e-17
-5.956829e-02 1.837478e-18
-5.931829e-02 2.212077e-17
-5.906829e-02 3.936090e-17
-5.881829e-02 4.689924e-17
-5.856829e-02 3.994772e-17
-5.831829e-02 1.767484e-17
-5.806829e-02 -1.562324e-17
-5.781829e-02 -5.087977e-17
-5.756829e-02 -7.635557e-17
-5.731829e-02 -8.112810e-17
-5.706829e-02 -5.905790e-17
-5.681829e-02 -1.195275e-17
-5.656829e-02 4.934640e-17
-5.631829e-02 1.067825e-16
-5.606829e-02 1.397905e-16
-5.581829e-02 1.318740e-16
-5.556829e-02 7.715980e-17
-5.531829e-02 -1.534934e-17
-5.506829e-02 -1.217809e-16
-5.481829e-02 -2.085403e-16
-5.456829e-02 -2.418790e-16
-5.431829e-02 -1.994796e-16
-5.406829e-02 -8.046220e-17
-5.381829e-02 8.996954e-17
-5.356829e-02 2.639290e-16
-5.331829e-02 3.827393e-16
-5.306829e-02 3.949131e-16
-5.281829e-02 2.752292e-16
-5.256829e-02 3.855376e-17
-5.231829e-02 -2.573892e-16
-5.206829e-02 -5.234106e-16
-5.181829e-02 -6.632516e-16
-5.156829e-02 -6.051164e-16
-5.131829e-02 -3.308863e-16
-5.106829e-02 1.074507e-16
-5.081829e-02 5.922244e-16
-5.056829e-02 9.677930e-16
-5.031829e-02 1.086436e-15
-5.006829e-02 8.601297e-16
-4.981829e-02 3.015889e-16
-4.956829e-02 -4.614363e-16
-4.931829e-02 -1.208431e-15
-4.906829e-02 -1.684049e-15
-4.881829e-02 -1.678454e-15
-4.856829e-02 -1.106744e-15
-4.831829e-02 -6.021462e-17
-4.806829e-02 1.193024e-15
-4.781829e-02 2.267360e-15
-4.756829e-02 2.769372e-15
-4.731829e-02 2.429533e-15
-4.706829e-02 1.215045e-15
-4.681829e-02 -6.177967e-16
-4.656829e-02 -2.559996e-15
-4.631829e-02 -3.978029e-15
-4.606829e-02 -4.306149e-15
-4.581829e-02 -3.248678e-15
-4.556829e-02 -9.255125e-16
-4.531829e-02 2.098009e-15
-4.506829e-02 4.926467e-15
-4.481829e-02 6.580330e-15
-4.456829e-02 6.311245e-15
-4.431829e-02 3.891761e-15
-4.406829e-02 -2.224969e-16
-4.381829e-02 -4.933816e-15
-4.356829e-02 -8.765937e-15
-4.331829e-02 -1.029760e-14
-4.306829e-02 -8.647673e-15
-4.281829e-02 -3.856948e-15
-4.256829e-02 2.978242e-15
-4.231829e-02 9.905088e-15
-4.206829e-02 1.463188e-14
-4.181829e-02 1.524059e-14
-4.156829e-02 1.088607e-14
-4.131829e-02 2.245232e-15
-4.106829e-02 -8.473025e-15
-4.081829e-02 -1.802840e-14
-4.056829e-02 -2.307118e-14
-4.031829e-02 -2.124159e-14
-4.006829e-02 -1.210591e-14
-3.981829e-02 2.408252e-15
-3.956829e-02 1.829837e-14
-3.931829e-02 3.050767e-14
-3.906829e-02 3.444886e-14
-3.881829e-02 2.759748e-14
-3.856829e-02 1.063384e-14
-3.831829e-02 -1.231307e-14
-3.806829e-02 -3.453238e-14
-3.781829e-02 -4.858166e-14
-3.756829e-02 -4.864757e-14
-3.731829e-02 -3.270537e-14
-3.706829e-02 -3.730621e-15
-3.681829e-02 3.057445e-14
-3.656829e-02 5.965972e-14
-3.631829e-02 7.321411e-14
-3.606829e-02 6.460630e-14
-3.581829e-02 3.358788e-14
-3.556829e-02 -1.273946e-14
-3.531829e-02 -6.125314e-14
-3.506829e-02 -9.631134e-14
-3.481829e-02 -1.045658e-13
-3.456829e-02 -7.967241e-14
-3.431829e-02 -2.532863e-14
-3.406829e-02 4.459241e-14
-3.381829e-02 1.092446e-13
-3.356829e-02 1.467371e-13
-3.331829e-02 1.411941e-13
-3.306829e-02 8.876672e-14
-3.281829e-02 4.769609e-16
-3.256829e-02 -9.945831e-14
-3.231829e-02 -1.798609e-13
-3.206829e-02 -2.119208e-13
-3.181829e-02 -1.789502e-13
-3.156829e-02 -8.340818e-14
-3.131829e-02 5.146292e-14
-3.106829e-02 1.866137e-13
-3.081829e-02 2.779771e-13
-3.056829e-02 2.902608e-13
-3.031829e-02 2.095914e-13
-3.006829e-02 5.071694e-14
-2.981829e-02 -1.442681e-13
-2.956829e-02 -3.163062e-13
-2.931829e-02 -4.065850e-13
-2.906829e-02 -3.757678e-13
-2.881829e-02 -2.191960e-13
-2.856829e-02 2.739848e-14
-2.831829e-02 2.946862e-13
-2.806829e-02 4.983137e-13
-2.781828e-02 5.645956e-13
-2.756829e-02 4.557730e-13
-2.731829e-02 1.865407e-13
-2.706829e-02 -1.745800e-13
-2.681829e-02 -5.212436e-13
-2.656829e-02 -7.394601e-13
-2.631829e-02 -7.437532e-13
-2.606829e-02 -5.082025e-13
-2.581829e-02 -8.166956e-14
-2.556829e-02 4.195542e-13
-2.531829e-02 8.418466e-13
-2.506829e-02 1.039874e-12
-2.481829e-02 9.246378e-13
-2.456829e-02 4.985871e-13
-2.431829e-02 -1.350366e-13
-2.406829e-02 -7.945280e-13
-2.381829e-02 -1.269941e-12
-2.356829e-02 -1.387958e-12
-2.331829e-02 -1.071941e-12
-2.306829e-02 -3.771649e-13
-2.281829e-02 5.128922e-13
-2.256829e-02 1.332160e-12
-2.231829e-02 1.809192e-12
-2.206829e-02 1.754317e-12
-2.181829e-02 1.129531e-12
-2.156829e-02 7.668746e-14
-2.131829e-02 -1.109541e-12
-2.106829e-02 -2.060921e-12
-2.081829e-02 -2.446927e-12
-2.056829e-02 -2.085314e-12
-2.031828e-02 -1.016169e-12
-2.006829e-02 4.882754e-13
-1.981829e-02 1.987792e-12
-1.956829e-02 2.999079e-12
-1.931829e-02 3.147250e-12
-1.906829e-02 2.297637e-12
-1.881829e-02 6.233766e-13
-1.856828e-02 -1.419484e-12
-1.831829e-02 -3.210559e-12
-1.806829e-02 -4.148471e-12
-1.781829e-02 -3.846270e-12
-1.756829e-02 -2.277179e-12
-1.731829e-02 1.811637e-13
-1.706829e-02 2.828132e-12
-1.681828e-02 4.833283e-12
-1.656829e-02 5.490022e-12
-1.631829e-02 4.454149e-12
-1.606829e-02 1.889273e-12
-1.581829e-02 -1.536397e-12
-1.556829e-02 -4.814999e-12
-1.531829e-02 -6.888125e-12
-1.506829e-02 -6.979300e-12
-1.481829e-02 -4.867635e-12
-1.456829e-02 -1.009906e-12
-1.431829e-02 3.541695e-12
-1.406829e-02 7.418422e-12
-1.381829e-02 9.339311e-12
-1.356828e-02 8.523542e-12
-1.331829e-02 4.980570e-12
-1.306829e-02 -4.246230e-13
-1.281829e-02 -6.170976e-12
-1.256830e-02 -1.050451e-11
-1.231828e-02 -1.196965e-11
-1.206829e-02 -9.889164e-12
-1.181829e-02 -4.636728e-12
-1.156829e-02 2.400719e-12
-1.131828e-02 9.182858e-12
-1.106828e-02 1.360870e-11
-1.081829e-02 1.417145e-11
-1.056829e-02 1.047214e-11
-1.031829e-02 3.418093e-12
-1.006828e-02 -4.979870e-12
-9.818286e-03 -1.217547e-11
-9.568289e-03 -1.586439e-11
-9.318292e-03 -1.473613e-11
-9.068280e-03 -8.955994e-12
-8.818284e-03 -2.019140e-13
-8.568287e-03 8.788437e-12
-8.318290e-03 1.504893e-11
-8.068293e-03 1.635144e-11
-7.818282e-03 1.200091e-11
-7.568285e-03 3.183346e-12
-7.318288e-03 -7.284967e-12
-7.068291e-03 -1.577549e-11
-6.818295e-03 -1.901190e-11
-6.568283e-03 -1.522686e-11
-6.318286e-03 -4.926734e-12
-6.068289e-03 9.027227e-12
-5.818292e-03 2.211720e-11
-5.568281e-03 2.949726e-11
-5.318284e-03 2.758289e-11
-5.068287e-03 1.541110e-11
-4.818290e-03 -4.694833e-12
-4.568294e-03 -2.744564e-11
-4.318282e-03 -4.589601e-11
-4.068285e-03 -5.343547e-11
-3.818288e-03 -4.590628e-11
-3.568292e-03 -2.320067e-11
-3.318280e-03 1.021003e-11
-3.068283e-03 4.608336e-11
-2.818286e-03 7.443336e-11
-2.568290e-03 8.627889e-11
-2.318293e-03 7.635342e-11
-2.068281e-03 4.496787e-11
-1.818284e-03 -1.589812e-12
-1.568288e-03 -5.234299e-11
-1.318291e-03 -9.434244e-11
-1.068294e-03 -1.161124e-10
-8.182824e-04 -1.108740e-10
-5.682856e-04 -7.861027e-11
-3.182888e-04 -2.632946e-11
-6.829202e-05 3.361366e-11
1.817197e-04 8.671948e-11
4.317164e-04 1.201896e-10
6.817132e-04 1.263288e-10
9.317100e-04 1.045223e-10
1.181707e-03 6.121649e-11
1.431718e-03 7.915814e-12
1.681715e-03 -4.219394e-11
1.931712e-03 -7.797235e-11
2.181709e-03 -9.327096e-11
2.431706e-03 -8.821793e-11
2.681717e-03 -6.848759e-11
2.931714e-03 -4.284995e-11
3.181711e-03 -1.985687e-11
3.431708e-03 -4.810515e-12
3.681719e-03 1.927388e-12
3.931716e-03 4.673511e-12
4.181713e-03 1.026879e-11
4.431710e-03 2.477262e-11
4.681706e-03 5.020383e-11
4.931718e-03 8.259296e-11
5.181715e-03 1.122369e-10
5.431712e-03 1.263308e-10
5.681708e-03 1.133137e-10
5.931720e-03 6.757482e-11
6.181717e-03 -7.115052e-12
6.431714e-03 -9.684028e-11
6.681710e-03 -1.800923e-10
6.931707e-03 -2.332429e-10
7.181719e-03 -2.375261e-10
7.431716e-03 -1.854541e-10
7.681713e-03 -8.454271e-11
7.931709e-03 4.314676e-11
8.181706e-03 1.659661e-10
8.431718e-03 2.510671e-10
8.681715e-03 2.739622e-10
8.931711e-03 2.264226e-10
9.181708e-03 1.201371e-10
9.431720e-03 -1.536253e-11
9.681717e-03 -1.403622e-10
9.931713e-03 -2.163316e-10
1.018171e-02 -2.178218e-10
1.043171e-02 -1.412992e-10
1.068172e-02 -7.968654e-12
1.093172e-02 1.407638e-10
1.118171e-02 2.544078e-10
1.143171e-02 2.882556e-10
1.168172e-02 2.178246e-10
1.193172e-02 4.851435e-11
1.218171e-02 -1.827761e-10
1.243171e-02 -4.151807e-10
1.268171e-02 -5.790489e-10
1.293172e-02 -6.149532e-10
1.318172e-02 -4.913548e-10
1.343171e-02 -2.158540e-10
1.368171e-02 1.634892e-10
1.393171e-02 5.676319e-10
1.418172e-02 9.047009e-10
1.443172e-02 1.092203e-09
1.468171e-02 1.077432e-09
1.493171e-02 8.506041e-10
1.518172e-02 4.471999e-10
1.543172e-02 -6.101142e-11
1.568171e-02 -5.836536e-10
1.593171e-02 -1.033097e-09
1.618171e-02 -1.343506e-09
1.643172e-02 -1.482415e-09
1.668172e-02 -1.451971e-09
1.693171e-02 -1.280169e-09
1.718171e-02 -1.005460e-09
1.743171e-02 -6.601032e-10
1.768172e-02 -2.580501e-10
1.793171e-02 2.083269e-10
1.818171e-02 7.610954e-10
1.843171e-02 1.421008e-09
1.868172e-02 2.187774e-09
1.893172e-02 3.022513e-09
1.918171e-02 3.838238e-09
1.943171e-02 4.502124e-09
1.968171e-02 4.850096e-09
1.993172e-02 4.710821e-09
2.018172e-02 3.933525e-09
2.043171e-02 2.413010e-09
2.068171e-02 1.060045e-10
2.093172e-02 -2.964606e-09
2.118172e-02 -6.717903e-09
2.143171e-02 -1.103252e-08
2.168171e-02 -1.576872e-08
2.193171e-02 -2.078950e-08
2.218172e-02 -2.597639e-08
2.243172e-02 -3.123784e-08
2.268171e-02 -3.651075e-08
2.293171e-02 -4.175770e-08
2.318171e-02 -4.696300e-08
2.343172e-02 -5.213047e-08
2.368172e-02 -5.728367e-08
2.393171e-02 -6.246746e-08
2.418171e-02 -6.774823e-08
2.443172e-02 -7.320963e-08
2.468172e-02 -7.894202e-08
2.493171e-02 -8.502618e-08
2.518171e-02 -9.151453e-08
2.543171e-02 -9.841526e-08
2.568172e-02 -1.056854e-07
2.593172e-02 -1.132370e-07
2.618171e-02 -1.209575e-07
2.643171e-02 -1.287409e-07
2.668172e-02 -1.365216e-07
2.693172e-02 -1.443018e-07
2.718171e-02 -1.521637e-07
2.743171e-02 -1.602588e-07
2.768171e-02 -1.687772e-07
2.793172e-02 -1.779011e-07
2.818172e-02 -1.877554e-07
2.843171e-02 -1.983699e-07
2.868171e-02 -2.096647e-07
2.893171e-02 -2.214666e-07
2.918172e-02 -2.335543e-07
2.943172e-02 -2.457240e-07
2.968171e-02 -2.578577e-07
2.993171e-02 -2.699755e-07
3.018172e-02 -2.822566e-07
3.043172e-02 -2.950180e-07
3.068171e-02 -3.086549e-07
3.093171e-02 -3.235541e-07
3.118171e-02 -3.400002e-07
3.143172e-02 -3.581001e-07
3.168172e-02 -3.777454e-07
3.193171e-02 -3.986248e-07
3.218171e-02 -4.202865e-07
3.243172e-02 -4.422381e-07
3.268172e-02 -4.640615e-07
3.293172e-02 -4.855153e-07
3.318171e-02 -5.066009e-07
3.343171e-02 -5.275770e-07
3.368172e-02 -5.489175e-07
3.393172e-02 -5.712247e-07
3.418171e-02 -5.951158e-07
3.443171e-02 -6.211099e-07
3.468171e-02 -6.495401e-07
3.493172e-02 -6.805075e-07
3.518172e-02 -7.138848e-07
3.543171e-02 -7.493642e-07
3.568171e-02 -7.865358e-07
3.593172e-02 -8.249766e-07
3.618172e-02 -8.643296e-07
3.643171e-02 -9.043602e-07
3.668171e-02 -9.449802e-07
3.693171e-02 -9.862437e-07
3.718172e-02 -1.028320e-06
3.743172e-02 -1.071457e-06
3.768171e-02 -1.115948e-06
3.793171e-02 -1.162100e-06
3.818171e-02 -1.210221e-06
3.843172e-02 -1.260611e-06
3.868172e-02 -1.313553e-06
3.893171e-02 -1.369308e-06
3.918171e-02 -1.428102e-06
3.943172e-02 -1.490101e-06
3.968172e-02 -1.555397e-06
3.993171e-02 -1.623988e-06
4.018171e-02 -1.695777e-06
4.043171e-02 -1.770587e-06
4.068172e-02 -1.848192e-06
4.093172e-02 -1.928360e-06
4.118171e-02 -2.010904e-06
4.143171e-02 -2.095726e-06
4.168172e-02 -2.182850e-06
4.193172e-02 -2.272433e-06
4.218172e-02 -2.364761e-06
4.243171e-02 -2.460220e-06
4.268171e-02 -2.559257e-06
4.293172e-02 -2.662341e-06
4.318172e-02 -2.769915e-06
4.343171e-02 -2.882362e-06
4.368171e-02 -2.999980e-06
4.393171e-02 -3.122964e-06
4.418172e-02 -3.251403e-06
4.443172e-02 -3.385289e-06
4.468171e-02 -3.524530e-06
4.493171e-02 -3.668987e-06
4.518172e-02 -3.818505e-06
4.543172e-02 -3.972966e-06
4.568172e-02 -4.132330e-06
4.593171e-02 -4.296679e-06
4.618171e-02 -4.466240e-06
4.643172e-02 -4.641388e-06
4.668172e-02 -4.822621e-06
4.693171e-02 -5.010511e-06
4.718171e-02 -5.205641e-06
4.743172e-02 -5.408532e-06
4.768172e-02 -5.619589e-06
4.793172e-02 -5.839066e-06
4.818171e-02 -6.067071e-06
4.843171e-02 -6.303604e-06
4.868172e-02 -6.548621e-06
4.893172e-02 -6.802112e-06
4.918171e-02 -7.064172e-06
4.943171e-02 -7.335046e-06
4.968171e-02 -7.615137e-06
4.993172e-02 -7.904976e-06
5.018172e-02 -8.205156e-06
5.043171e-02 -8.516255e-06
5.068171e-02 -8.838759e-06
5.093172e-02 -9.173011e-06
5.118172e-02 -9.519198e-06
5.143172e-02 -9.877383e-06
5.168171e-02 -1.024757e-05
5.193171e-02 -1.062979e-05
5.218172e-02 -1.102418e-05
5.243172e-02 -1.143108e-05
5.268171e-02 -1.185101e-05
5.293171e-02 -1.228469e-05
5.318171e-02 -1.273298e-05
5.343172e-02 -1.319680e-05
5.368172e-02 -1.367701e-05
5.393171e-02 -1.417439e-05
5.418171e-02 -1.468954e-05
5.443172e-02 -1.522290e-05
5.468172e-02 -1.577476e-05
5.493172e-02 -1.634528e-05
5.518171e-02 -1.693464e-05
5.543171e-02 -1.754300e-05
5.568172e-02 -1.817063e-05
5.593172e-02 -1.881790e-05
5.618171e-02 -1.948533e-05
5.643171e-02 -2.017353e-05
5.668172e-02 -2.088321e-05
5.693172e-02 -2.161515e-05
5.718172e-02 -2.237016e-05
5.743171e-02 -2.314907e-05
5.768171e-02 -2.395274e-05
5.793172e-02 -2.478199e-05
5.818172e-02 -2.563767e-05
5.843171e-02 -2.652062e-05
5.868171e-02 -2.743171e-05
5.893171e-02 -2.837177e-05
5.918172e-02 -2.934167e-05
5.943172e-02 -3.034224e-05
5.968171e-02 -3.137431e-05
5.993171e-02 -3.243866e-05
6.018172e-02 -3.353606e-05
6.043172e-02 -3.466718e-05
6.068172e-02 -3.583271e-05
6.093171e-02 -3.703323e-05
6.118171e-02 -3.826938e-05
6.143172e-02 -3.954176e-05
6.168172e-02 -4.085108e-05
6.193171e-02 -4.219814e-05
6.218171e-02 -4.358388e-05
6.243172e-02 -4.500943e-05
6.268172e-02 -4.647611e-05
6.293172e-02 -4.798540e-05
6.318171e-02 -4.953888e-05
6.343171e-02 -5.113823e-05
6.368172e-02 -5.278505e-05
6.393172e-02 -5.448090e-05
6.418172e-02 -5.622716e-05
6.443171e-02 -5.802502e-05
6.468171e-02 -5.987550e-05
6.493172e-02 -6.177943e-05
6.518172e-02 -6.373753e-05
6.543171e-02 -6.575051e-05
6.568171e-02 -6.781907e-05
6.593172e-02 -6.994404e-05
6.618172e-02 -7.212642e-05
6.643172e-02 -7.436737e-05
6.668171e-02 -7.666829e-05
6.693171e-02 -7.903081e-05
6.718172e-02 -8.145672e-05
6.743172e-02 -8.394795e-05
6.768171e-02 -8.650653e-05
6.793171e-02 -8.913453e-05
6.818172e-02 -9.183398e-05
6.843172e-02 -9.460680e-05
6.868172e-02 -9.745479e-05
6.893171e-02 -1.003796e-04
6.918171e-02 -1.033825e-04
6.943172e-02 -1.064650e-04
6.968172e-02 -1.096281e-04
6.993172e-02 -1.128730e-04
7.018171e-02 -1.162010e-04
7.043171e-02 -1.196133e-04
7.068172e-02 -1.231115e-04
7.093172e-02 -1.266973e-04
7.118171e-02 -1.303727e-04
7.143171e-02 -1.341398e-04
7.168172e-02 -1.380007e-04
7.193172e-02 -1.419578e-04
7.218172e-02 -1.460132e-04
7.243171e-02 -1.501691e-04
7.268171e-02 -1.544276e-04
7.293172e-02 -1.587906e-04
7.318172e-02 -1.632600e-04
7.343172e-02 -1.678378e-04
7.368171e-02 -1.725257e-04
7.393171e-02 -1.773258e-04
7.418172e-02 -1.822401e-04
7.443172e-02 -1.872706e-04
7.468171e-02 -1.924196e-04
7.493171e-02 -1.976892e-04
7.518172e-02 -2.030814e-04
7.543172e-02 -2.085985e-04
7.568172e-02 -2.142423e-04
7.593171e-02 -2.200151e-04
7.618171e-02 -2.259188e-04
7.643172e-02 -2.319556e-04
7.668172e-02 -2.381276e-04
7.693172e-02 -2.444370e-04
7.718171e-02 -2.508861e-04
7.743172e-02 -2.574774e-04
7.768172e-02 -2.642132e-04
7.793172e-02 -2.710960e-04
7.818171e-02 -2.781284e-04
7.843171e-02 -2.853126e-04
7.868172e-02 -2.926513e-04
7.893172e-02 -3.001466e-04
7.918172e-02 -3.078009e-04
7.943171e-02 -3.156165e-04
7.968171e-02 -3.235956e-04
7.993172e-02 -3.317402e-04
8.018172e-02 -3.400525e-04
8.043171e-02 -3.485344e-04
8.068171e-02 -3.571881e-04
8.093172e-02 -3.660157e-04
8.118172e-02 -3.750195e-04
8.143172e-02 -3.842020e-04
8.168171e-02 -3.935655e-04
8.193171e-02 -4.031129e-04
8.218172e-02 -4.128469e-04
8.243172e-02 -4.227701e-04
8.268172e-02 -4.328853e-04
8.293171e-02 -4.431948e-04
8.318172e-02 -4.537012e-04
8.343172e-02 -4.644062e-04
8.368172e-02 -4.753119e-04
8.393171e-02 -4.864199e-04
8.418171e-02 -4.977317e-04
8.443172e-02 -5.092488e-04
8.468172e-02 -5.209728e-04
8.493172e-02 -5.329056e-04
8.518171e-02 -5.450490e-04
8.543171e-02 -5.574051e-04
8.568172e-02 -5.699762e-04
8.593172e-02 -5.827647e-04
8.618172e-02 -5.957730e-04
8.643171e-02 -6.090037e-04
8.668172e-02 -6.224590e-04
8.693172e-02 -6.361410e-04
8.718172e-02 -6.500517e-04
8.743171e-02 -6.641930e-04
8.768171e-02 -6.785662e-04
8.793172e-02 -6.931728e-04
8.818172e-02 -7.080141e-04
8.843172e-02 -7.230911e-04
8.868171e-02 -7.384049e-04
8.893172e-02 -7.539564e-04
8.918172e-02 -7.697467e-04
8.943172e-02 -7.857766e-04
8.968171e-02 -8.020474e-04
8.993171e-02 -8.185598e-04
9.018172e-02 -8.353151e-04
9.043172e-02 -8.523142e-04
9.068172e-02 -8.695581e-04
9.093171e-02 -8.870478e-04
9.118171e-02 -9.047841e-04
9.143172e-02 -9.227678e-04
9.168172e-02 -9.409994e-04
9.193172e-02 -9.594795e-04
9.218171e-02 -9.782085e-04
9.243172e-02 -9.971868e-04
9.268172e-02 -1.016414e-03
9.293172e-02 -1.035892e-03
9.318171e-02 -1.055619e-03
9.343171e-02 -1.075595e-03
9.368172e-02 -1.095820e-03
9.393172e-02 -1.116293e-03
9.418172e-02 -1.137015e-03
9.443171e-02 -1.157983e-03
9.468171e-02 -1.179198e-03
9.493172e-02 -1.200657e-03
9.518172e-02 -1.222361e-03
9.543172e-02 -1.244307e-03
9.568171e-02 -1.266496e-03
9.593172e-02 -1.288925e-03
9.618172e-02 -1.311593e-03
9.643172e-02 -1.334498e-03
9.668171e-02 -1.357638e-03
9.693171e-02 -1.381012e-03
9.718172e-02 -1.404616e-03
9.743172e-02 -1.428448e-03
9.768172e-02 -1.452506e-03
9.793171e-02 -1.476788e-03
9.818172e-02 -1.501291e-03
9.843172e-02 -1.526012e-03
9.868172e-02 -1.550948e-03
9.893171e-02 -1.576097e-03
9.918171e-02 -1.601455e-03
9.943172e-02 -1.627018e-03
9.968172e-02 -1.652784e-03
9.993172e-02 -1.678748e-03
1.001817e-01 -1.704906e-03
1.004317e-01 -1.731255e-03
1.006817e-01 -1.757790e-03
1.009317e-01 -1.784506e-03
1.011817e-01 -1.811399e-03
1.014317e-01 -1.838463e-03
1.016817e-01 -1.865693e-03
1.019317e-01 -1.893084e-03
1.021817e-01 -1.920631e-03
1.024317e-01 -1.948326e-03
1.026817e-01 -1.976166e-03
1.029317e-01 -2.004143e-03
1.031817e-01 -2.032252e-03
1.034317e-01 -2.060486e-03
1.036817e-01 -2.088837e-03
1.039317e-01 -2.117300e-03
1.041817e-01 -2.145867e-03
1.044317e-01 -2.174530e-03
1.046817e-01 -2.203283e-03
1.049317e-01 -2.232119e-03
1.051817e-01 -2.261030e-03
1.054317e-01 -2.290008e-03
1.056817e-01 -2.319047e-03
1.059317e-01 -2.348138e-03
1.061817e-01 -2.377272e-03
1.064317e-01 -2.406441e-03
1.066817e-01 -2.435636e-03
1.069317e-01 -2.464847e-03
1.071817e-01 -2.494065e-03
1.074317e-01 -2.523281e-03
1.076817e-01 -2.552485e-03
1.079317e-01 -2.581668e-03
1.081817e-01 -2.610818e-03
1.084317e-01 -2.639925e-03
1.086817e-01 -2.668978e-03
1.089317e-01 -2.697967e-03
1.091817e-01 -2.726881e-03
1.094317e-01 -2.755709e-03
1.096817e-01 -2.784441e-03
1.099317e-01 -2.813066e-03
1.101817e-01 -2.841573e-03
1.104317e-01 -2.869952e-03
1.106817e-01 -2.898189e-03
1.109317e-01 -2.926274e-03
1.111817e-01 -2.954193e-03
1.114317e-01 -2.981934e-03
1.116817e-01 -3.009485e-03
1.119317e-01 -3.036832e-03
1.121817e-01 -3.063965e-03
1.124317e-01 -3.090869e-03
1.126817e-01 -3.117534e-03
1.129317e-01 -3.143944e-03
1.131817e-01 -3.170086e-03
1.134317e-01 -3.195948e-03
1.136817e-01 -3.221514e-03
1.139317e-01 -3.246772e-03
1.141817e-01 -3.271708e-03
1.144317e-01 -3.296310e-03
1.146817e-01 -3.320563e-03
1.149317e-01 -3.344455e-03
1.151817e-01 -3.367972e-03
1.154317e-01 -3.391099e-03
1.156817e-01 -3.413822e-03
1.159317e-01 -3.436127e-03
1.161817e-01 -3.457999e-03
1.164317e-01 -3.479423e-03
1.166817e-01 -3.500387e-03
1.169317e-01 -3.520875e-03
1.171817e-01 -3.540873e-03
1.174317e-01 -3.560367e-03
1.176817e-01 -3.579341e-03
1.179317e-01 -3.597781e-03
1.181817e-01 -3.615671e-03
1.184317e-01 -3.632996e-03
1.186817e-01 -3.649743e-03
1.189317e-01 -3.665897e-03
1.191817e-01 -3.681443e-03
1.194317e-01 -3.696368e-03
1.196817e-01 -3.710657e-03
1.199317e-01 -3.724296e-03
1.201817e-01 -3.737271e-03
1.204317e-01 -3.749567e-03
1.206817e-01 -3.761170e-03
1.209317e-01 -3.772065e-03
1.211817e-01 -3.782240e-03
1.214317e-01 -3.791680e-03
1.216817e-01 -3.800373e-03
1.219317e-01 -3.808305e-03
1.221817e-01 -3.815463e-03
1.224317e-01 -3.821832e-03
1.226817e-01 -3.827399e-03
1.229317e-01 -3.832150e-03
1.231817e-01 -3.836072e-03
1.234317e-01 -3.839151e-03
1.236817e-01 -3.841375e-03
1.239317e-01 -3.842732e-03
1.241817e-01 -3.843210e-03
1.244317e-01 -3.842797e-03
1.246817e-01 -3.841481e-03
1.249317e-01 -3.839249e-03
1.251817e-01 -3.836089e-03
1.254317e-01 -3.831991e-03
1.256817e-01 -3.826943e-03
1.259317e-01 -3.820935e-03
1.261817e-01 -3.813957e-03
1.264317e-01 -3.806000e-03
1.266817e-01 -3.797054e-03
1.269317e-01 -3.787108e-03
1.271817e-01 -3.776155e-03
1.274317e-01 -3.764183e-03
1.276817e-01 -3.751184e-03
1.279317e-01 -3.737150e-03
1.281817e-01 -3.722071e-03
1.284317e-01 -3.705942e-03
1.286817e-01 -3.688755e-03
1.289317e-01 -3.670504e-03
1.291817e-01 -3.651182e-03
1.294317e-01 -3.630783e-03
1.296817e-01 -3.609300e-03
1.299317e-01 -3.586727e-03
1.301817e-01 -3.563058e-03
1.304317e-01 -3.538288e-03
1.306817e-01 -3.512414e-03
1.309317e-01 -3.485432e-03
1.311817e-01 -3.457339e-03
1.314317e-01 -3.428133e-03
1.316817e-01 -3.397812e-03
1.319317e-01 -3.366372e-03
1.321817e-01 -3.333811e-03
1.324317e-01 -3.300128e-03
1.326817e-01 -3.265320e-03
1.329317e-01 -3.229388e-03
1.331817e-01 -3.192332e-03
1.334317e-01 -3.154153e-03
1.336817e-01 -3.114853e-03
1.339317e-01 -3.074433e-03
1.341817e-01 -3.032896e-03
1.344317e-01 -2.990243e-03
1.346817e-01 -2.946478e-03
1.349317e-01 -2.901603e-03
1.351817e-01 -2.855622e-03
1.354317e-01 -2.808539e-03
1.356817e-01 -2.760360e-03
1.359317e-01 -2.711091e-03
1.361817e-01 -2.660737e-03
1.364317e-01 -2.609305e-03
1.366817e-01 -2.556802e-03