-1.388183e-01 0.000000e+00
-1.385683e-01 0.000000e+00
-1.383183e-01 0.000000e+00
-1.380683e-01 0.000000e+00
-1.378183e-01 0.000000e+00
-1.375683e-01 0.000000e+00
-1.373183e-01 0.000000e+00
-1.370683e-01 0.000000e+00
-1.368183e-01 0.000000e+00
-1.365683e-01 0.000000e+00
-1.363183e-01 0.000000e+00
-1.360683e-01 0.000000e+00
-1.358183e-01 0.000000e+00
-1.355683e-01 0.000000e+00
-1.353183e-01 0.000000e+00
-1.350683e-01 0.000000e+00
-1.348183e-01 0.000000e+00
-1.345683e-01 0.000000e+00
-1.343183e-01 0.000000e+00
-1.340683e-01 0.000000e+00
-1.338183e-01 0.000000e+00
-1.335683e-01 0.000000e+00
-1.333183e-01 0.000000e+00
-1.330683e-01 0.000000e+00
-1.328183e-01 0.000000e+00
-1.325683e-01 0.000000e+00
-1.323183e-01 0.000000e+00
-1.320683e-01 0.000000e+00
-1.318183e-01 0.000000e+00
-1.315683e-01 0.000000e+00
-1.313183e-01 0.000000e+00
-1.310683e-01 0.000000e+00
-1.308183e-01 0.000000e+00
-1.305683e-01 0.000000e+00
-1.303183e-01 0.000000e+00
-1.300683e-01 0.000000e+00
-1.298183e-01 0.000000e+00
-1.295683e-01 0.000000e+00
-1.293183e-01 0.000000e+00
-1.290683e-01 0.000000e+00
-1.288183e-01 0.000000e+00
-1.285683e-01 0.000000e+00
-1.283183e-01 0.000000e+00
-1.280683e-01 0.000000e+00
-1.278183e-01 0.000000e+00
-1.275683e-01 0.000000e+00
-1.273183e-01 0.000000e+00
-1.270683e-01 0.000000e+00
-1.268183e-01 0.000000e+00
-1.265683e-01 0.000000e+00
-1.263183e-01 0.000000e+00
-1.260683e-01 0.000000e+00
-1.258183e-01 0.000000e+00
-1.255683e-01 0.000000e+00
-1.253183e-01 0.000000e+00
-1.250683e-01 0.000000e+00
-1.248183e-01 0.000000e+00
-1.245683e-01 0.000000e+00
-1.243183e-01 0.000000e+00
-1.240683e-01 0.000000e+00
-1.238183e-01 0.000000e+00
-1.235683e-01 0.000000e+00
-1.233183e-01 0.000000e+00
-1.230683e-01 0.000000e+00
-1.228183e-01 0.000000e+00
-1.225683e-01 0.000000e+00
-1.223183e-01 0.000000e+00
-1.220683e-01 0.000000e+00
-1.218183e-01 0.000000e+00
-1.215683e-01 0.000000e+00
-1.213183e-01 0.000000e+00
-1.210683e-01 0.000000e+00
-1.208183e-01 0.000000e+00
-1.205683e-01 0.000000e+00
-1.203183e-01 0.000000e+00
-1.200683e-01 0.000000e+00
-1.198183e-01 0.000000e+00
-1.195683e-01 0.000000e+00
-1.193183e-01 0.000000e+00
-1.190683e-01 0.000000e+00
-1.188183e-01 0.000000e+00
-1.185683e-01 0.000000e+00
-1.183183e-01 0.000000e+00
-1.180683e-01 0.000000e+00
-1.178183e-01 0.000000e+00
-1.175683e-01 0.000000e+00
-1.173183e-01 0.000000e+00
-1.170683e-01 0.000000e+00
-1.168183e-01 0.000000e+00
-1.165683e-01 0.000000e+00
-1.163183e-01 0.000000e+00
-1.160683e-01 0.000000e+00
-1.158183e-01 0.000000e+00
-1.155683e-01 0.000000e+00
-1.153183e-01 0.000000e+00
-1.150683e-01 0.000000e+00
-1.148183e-01 0.000000e+00
-1.145683e-01 0.000000e+00
-1.143183e-01 0.000000e+00
-1.140683e-01 0.000000e+00
-1.138183e-01 0.000000e+00
-1.135683e-01 0.000000e+00
-1.133183e-01 0.000000e+00
-1.130683e-01 0.000000e+00
-1.128183e-01 0.000000e+00
-1.125683e-01 0.000000e+00
-1.123183e-01 0.000000e+00
-1.120683e-01 0.000000e+00
-1.118183e-01 0.000000e+00
-1.115683e-01 0.000000e+00
-1.113183e-01 0.000000e+00
-1.110683e-01 0.000000e+00
-1.108183e-01 0.000000e+00
-1.105683e-01 0.000000e+00
-1.103183e-01 0.000000e+00
-1.100683e-01 0.000000e+00
-1.098183e-01 0.000000e+00
-1.095683e-01 0.000000e+00
-1.093183e-01 0.000000e+00
-1.090683e-01 0.000000e+00
-1.088183e-01 0.000000e+00
-1.085683e-01 0.000000e+00
-1.083183e-01 0.000000e+00
-1.080683e-01 0.000000e+00
-1.078183e-01 0.000000e+00
-1.075683e-01 0.000000e+00
-1.073183e-01 0.000000e+00
-1.070683e-01 0.000000e+00
-1.068183e-01 0.000000e+00
-1.065683e-01 0.000000e+00
-1.063183e-01 0.000000e+00
-1.060683e-01 0.000000e+00
-1.058183e-01 0.000000e+00
-1.055683e-01 0.000000e+00
-1.053183e-01 0.000000e+00
-1.050683e-01 0.000000e+00
-1.048183e-01 0.000000e+00
-1.045683e-01 0.000000e+00
-1.043183e-01 0.000000e+00
-1.040683e-01 0.000000e+00
-1.038183e-01 0.000000e+00
-1.035683e-01 0.000000e+00
-1.033183e-01 0.000000e+00
-1.030683e-01 0.000000e+00
-1.028183e-01 0.000000e+00
-1.025683e-01 0.000000e+00
-1.023183e-01 0.000000e+00
-1.020683e-01 0.000000e+00
-1.018183e-01 0.000000e+00
-1.015683e-01 0.000000e+00
-1.013183e-01 0.000000e+00
-1.010683e-01 0.000000e+00
-1.008183e-01 0.000000e+00
-1.005683e-01 0.000000e+00
-1.003183e-01 0.000000e+00
-1.000683e-01 0.000000e+00
-9.981829e-02 0.000000e+00
-9.956829e-02 0.000000e+00
-9.931830e-02 0.000000e+00
-9.906829e-02 0.000000e+00
-9.881829e-02 0.000000e+00
-9.856829e-02 0.000000e+00
-9.831829e-02 0.000000e+00
-9.806830e-02 0.000000e+00
-9.781829e-02 0.000000e+00
-9.756829e-02 0.000000e+00
-9.731829e-02 0.000000e+00
-9.706829e-02 0.000000e+00
-9.681829e-02 0.000000e+00
-9.656829e-02 0.000000e+00
-9.631829e-02 0.000000e+00
-9.606829e-02 0.000000e+00
-9.581830e-02 0.000000e+00
-9.556829e-02 0.000000e+00
-9.531829e-02 0.000000e+00
-9.506829e-02 0.000000e+00
-9.481829e-02 0.000000e+00
-9.456830e-02 0.000000e+00
-9.431829e-02 0.000000e+00
-9.406829e-02 0.000000e+00
-9.381829e-02 0.000000e+00
-9.356830e-02 0.000000e+00
-9.331829e-02 0.000000e+00
-9.306829e-02 0.000000e+00
-9.281829e-02 0.000000e+00
-9.256829e-02 0.000000e+00
-9.231830e-02 0.000000e+00
-9.206829e-02 0.000000e+00
-9.181829e-02 0.000000e+00
-9.156829e-02 0.000000e+00
-9.131829e-02 0.000000e+00
-9.106829e-02 0.000000e+00
-9.081829e-02 0.000000e+00
-9.056829e-02 0.000000e+00
-9.031829e-02 0.000000e+00
-9.006830e-02 0.000000e+00
-8.981829e-02 0.000000e+00
-8.956829e-02 0.000000e+00
-8.931829e-02 0.000000e+00
-8.906829e-02 0.000000e+00
-8.881830e-02 0.000000e+00
-8.856829e-02 0.000000e+00
-8.831829e-02 0.000000e+00
-8.806829e-02 0.000000e+00
-8.781829e-02 0.000000e+00
-8.756829e-02 0.000000e+00
-8.731829e-02 0.000000e+00
-8.706829e-02 0.000000e+00
-8.681829e-02 0.000000e+00
-8.656830e-02 0.000000e+00
-8.631829e-02 0.000000e+00
-8.606829e-02 0.000000e+00
-8.581829e-02 0.000000e+00
-8.556829e-02 0.000000e+00
-8.531829e-02 0.000000e+00
-8.506829e-02 0.000000e+00
-8.481829e-02 0.000000e+00
-8.456829e-02 0.000000e+00
-8.431830e-02 0.000000e+00
-8.406829e-02 0.000000e+00
-8.381829e-02 0.000000e+00
-8.356829e-02 0.000000e+00
-8.331829e-02 0.000000e+00
-8.306830e-02 0.000000e+00
-8.281829e-02 0.000000e+00
-8.256829e-02 0.000000e+00
-8.231829e-02 0.000000e+00
-8.206829e-02 0.000000e+00
-8.181829e-02 0.000000e+00
-8.156829e-02 0.000000e+00
-8.131829e-02 0.000000e+00
-8.106829e-02 0.000000e+00
-8.081830e-02 0.000000e+00
-8.056829e-02 0.000000e+00
-8.031829e-02 0.000000e+00
-8.006829e-02 0.000000e+00
-7.981829e-02 0.000000e+00
-7.956829e-02 0.000000e+00
-7.931829e-02 0.000000e+00
-7.906829e-02 0.000000e+00
-7.881829e-02 0.000000e+00
-7.856829e-02 0.000000e+00
-7.831829e-02 0.000000e+00
-7.806829e-02 0.000000e+00
-7.781829e-02 0.000000e+00
-7.756829e-02 0.000000e+00
-7.731830e-02 0.000000e+00
-7.706829e-02 0.000000e+00
-7.681829e-02 0.000000e+00
-7.656829e-02 0.000000e+00
-7.631829e-02 0.000000e+00
-7.606829e-02 0.000000e+00
-7.581829e-02 0.000000e+00
-7.556829e-02 0.000000e+00
-7.531829e-02 0.000000e+00
-7.506829e-02 0.000000e+00
-7.481829e-02 0.000000e+00
-7.456829e-02 0.000000e+00
-7.431829e-02 0.000000e+00
-7.406829e-02 0.000000e+00
-7.381829e-02 0.000000e+00
-7.356829e-02 0.000000e+00
-7.331829e-02 0.000000e+00
-7.306829e-02 0.000000e+00
-7.281829e-02 0.000000e+00
-7.256829e-02 0.000000e+00
-7.231829e-02 0.000000e+00
-7.206829e-02 0.000000e+00
-7.181829e-02 0.000000e+00
-7.156829e-02 0.000000e+00
-7.131829e-02 0.000000e+00
-7.106829e-02 0.000000e+00
-7.081829e-02 0.000000e+00
-7.056829e-02 0.000000e+00
-7.031829e-02 0.000000e+00
-7.006829e-02 0.000000e+00
-6.981829e-02 0.000000e+00
-6.956829e-02 0.000000e+00
-6.931829e-02 0.000000e+00
-6.906829e-02 0.000000e+00
-6.881829e-02 0.000000e+00
-6.856829e-02 0.000000e+00
-6.831829e-02 0.000000e+00
-6.806829e-02 0.000000e+00
-6.781829e-02 0.000000e+00
-6.756829e-02 0.000000e+00
-6.731829e-02 0.000000e+00
-6.706829e-02 0.000000e+00
-6.681829e-02 0.000000e+00
-6.656829e-02 0.000000e+00
-6.631829e-02 0.000000e+00
-6.606829e-02 0.000000e+00
-6.581829e-02 0.000000e+00
-6.556829e-02 0.000000e+00
-6.531829e-02 0.000000e+00
-6.506829e-02 0.000000e+00
-6.481829e-02 0.000000e+00
-6.456829e-02 0.000000e+00
-6.431829e-02 0.000000e+00
-6.406829e-02 0.000000e+00
-6.381829e-02 0.000000e+00
-6.356829e-02 0.000000e+00
-6.331829e-02 0.000000e+00
-6.306829e-02 0.000000e+00
-6.281829e-02 0.000000e+00
-6.256829e-02 0.000000e+00
-6.231829e-02 0.000000e+00
-6.206829e-02 0.000000e+00
-6.181829e-02 0.000000e+00
-6.156829e-02 0.000000e+00
-6.131829e-02 0.000000e+00
-6.106829e-02 0.000000e+00
-6.081829e-02 0.000000e+00
-6.056829e-02 0.000000e+00
-6.031829e-02 0.000000e+00
-6.006829e-02 0.000000e+00
-5.981829e-02 0.000000e+00
-5.956829e-02 0.000000e+00
-5.931829e-02 0.000000e+00
-5.906829e-02 0.000000e+00
-5.881829e-02 0.000000e+00
-5.856829e-02 0.000000e+00
-5.831829e-02 0.000000e+00
-5.806829e-02 0.000000e+00
-5.781829e-02 0.000000e+00
-5.756829e-02 0.000000e+00
-5.731829e-02 0.000000e+00
-5.706829e-02 0.000000e+00
-5.681829e-02 0.000000e+00
-5.656829e-02 0.000000e+00
-5.631829e-02 0.000000e+00
-5.606829e-02 0.000000e+00
-5.581829e-02 0.000000e+00
-5.556829e-02 0.000000e+00
-5.531829e-02 0.000000e+00
-5.506829e-02 0.000000e+00
-5.481829e-02 0.000000e+00
-5.456829e-02 0.000000e+00
-5.431829e-02 0.000000e+00
-5.406829e-02 0.000000e+00
-5.381829e-02 0.000000e+00
-5.356829e-02 0.000000e+00
-5.331829e-02 0.000000e+00
-5.306829e-02 0.000000e+00
-5.281829e-02 0.000000e+00
-5.256829e-02 0.000000e+00
-5.231829e-02 0.000000e+00
-5.206829e-02 0.000000e+00
-5.181829e-02 0.000000e+00
-5.156829e-02 0.000000e+00
-5.131829e-02 0.000000e+00
-5.106829e-02 0.000000e+00
-5.081829e-02 0.000000e+00
-5.056829e-02 0.000000e+00
-5.031829e-02 0.000000e+00
-5.006829e-02 0.000000e+00
-4.981829e-02 0.000000e+00
-4.956829e-02 0.000000e+00
-4.931829e-02 0.000000e+00
-4.906829e-02 0.000000e+00
-4.881829e-02 0.000000e+00
-4.856829e-02 0.000000e+00
-4.831829e-02 0.000000e+00
-4.806829e-02 0.000000e+00
-4.781829e-02 0.000000e+00
-4.756829e-02 0.000000e+00
-4.731829e-02 0.000000e+00
-4.706829e-02 0.000000e+00
-4.681829e-02 0.000000e+00
-4.656829e-02 0.000000e+00
-4.631829e-02 0.000000e+00
-4.606829e-02 0.000000e+00
-4.581829e-02 0.000000e+00
-4.556829e-02 0.000000e+00
-4.531829e-02 0.000000e+00
-4.506829e-02 0.000000e+00
-4.481829e-02 0.000000e+00
-4.456829e-02 0.000000e+00
-4.431829e-02 0.000000e+00
-4.406829e-02 0.000000e+00
-4.381829e-02 0.000000e+00
-4.356829e-02 0.000000e+00
-4.331829e-02 0.000000e+00
-4.306829e-02 0.000000e+00
-4.281829e-02 0.000000e+00
-4.256829e-02 0.000000e+00
-4.231829e-02 0.000000e+00
-4.206829e-02 0.000000e+00
-4.181829e-02 0.000000e+00
-4.156829e-02 0.000000e+00
-4.131829e-02 0.000000e+00
-4.106829e-02 0.000000e+00
-4.081829e-02 0.000000e+00
-4.056829e-02 0.000000e+00
-4.031829e-02 0.000000e+00
-4.006829e-02 0.000000e+00
-3.981829e-02 0.000000e+00
-3.956829e-02 0.000000e+00
-3.931829e-02 0.000000e+00
-3.906829e-02 0.000000e+00
-3.881829e-02 0.000000e+00
-3.856829e-02 0.000000e+00
-3.831829e-02 0.000000e+00
-3.806829e-02 0.000000e+00
-3.781829e-02 0.000000e+00
-3.756829e-02 0.000000e+00
-3.731829e-02 0.000000e+00
-3.706829e-02 0.000000e+00
-3.681829e-02 0.000000e+00
-3.656829e-02 0.000000e+00
-3.631829e-02 0.000000e+00
-3.606829e-02 0.000000e+00
-3.581829e-02 0.000000e+00
-3.556829e-02 0.000000e+00
-3.531829e-02 0.000000e+00
-3.506829e-02 0.000000e+00
-3.481829e-02 0.000000e+00
-3.456829e-02 0.000000e+00
-3.431829e-02 0.000000e+00
-3.406829e-02 0.000000e+00
-3.381829e-02 0.000000e+00
-3.356829e-02 0.000000e+00
-3.331829e-02 0.000000e+00
-3.306829e-02 0.000000e+00
-3.281829e-02 0.000000e+00
-3.256829e-02 0.000000e+00
-3.231829e-02 0.000000e+00
-3.206829e-02 0.000000e+00
-3.181829e-02 0.000000e+00
-3.156829e-02 0.000000e+00
-3.131829e-02 0.000000e+00
-3.106829e-02 0.000000e+00
-3.081829e-02 0.000000e+00
-3.056829e-02 0.000000e+00
-3.031829e-02 0.000000e+00
-3.006829e-02 0.000000e+00
-2.981829e-02 0.000000e+00
-2.956829e-02 0.000000e+00
-2.931829e-02 0.000000e+00
-2.906829e-02 0.000000e+00
-2.881829e-02 0.000000e+00
-2.856829e-02 0.000000e+00
-2.831829e-02 0.000000e+00
-2.806829e-02 0.000000e+00
-2.781828e-02 0.000000e+00
-2.756829e-02 0.000000e+00
-2.731829e-02 0.000000e+00
-2.706829e-02 0.000000e+00
-2.681829e-02 0.000000e+00
-2.656829e-02 0.000000e+00
-2.631829e-02 0.000000e+00
-2.606829e-02 0.000000e+00
-2.581829e-02 0.000000e+00
-2.556829e-02 0.000000e+00
-2.531829e-02 0.000000e+00
-2.506829e-02 0.000000e+00
-2.481829e-02 0.000000e+00
-2.456829e-02 0.000000e+00
-2.431829e-02 0.000000e+00
-2.406829e-02 0.000000e+00
-2.381829e-02 0.000000e+00
-2.356829e-02 0.000000e+00
-2.331829e-02 0.000000e+00
-2.306829e-02 0.000000e+00
-2.281829e-02 0.000000e+00
-2.256829e-02 0.000000e+00
-2.231829e-02 0.000000e+00
-2.206829e-02 0.000000e+00
-2.181829e-02 0.000000e+00
-2.156829e-02 0.000000e+00
-2.131829e-02 0.000000e+00
-2.106829e-02 0.000000e+00
-2.081829e-02 0.000000e+00
-2.056829e-02 0.000000e+00
-2.031828e-02 0.000000e+00
-2.006829e-02 0.000000e+00
-1.981829e-02 0.000000e+00
-1.956829e-02 0.000000e+00
-1.931829e-02 0.000000e+00
-1.906829e-02 0.000000e+00
-1.881829e-02 0.000000e+00
-1.856828e-02 0.000000e+00
-1.831829e-02 -1.401298e-45
-1.806829e-02 -1.401298e-45
-1.781829e-02 -2.802597e-45
-1.756829e-02 -5.605194e-45
-1.731829e-02 -2.802597e-45
-1.706829e-02 -2.802597e-45
-1.681828e-02 2.802597e-45
-1.656829e-02 8.407791e-45
-1.631829e-02 8.407791e-45
-1.606829e-02 2.242078e-44
-1.581829e-02 1.961818e-44
-1.556829e-02 1.401298e-44
-1.531829e-02 -1.401298e-45
-1.506829e-02 -1.821688e-44
-1.481829e-02 -3.783506e-44
-1.456829e-02 -4.764415e-44
-1.431829e-02 -4.344025e-44
-1.406829e-02 -1.681558e-44
-1.381829e-02 3.082857e-44
-1.356828e-02 8.828180e-44
-1.331829e-02 1.359260e-43
-1.306829e-02 1.527415e-43
-1.281829e-02 1.163078e-43
-1.256830e-02 1.681558e-44
-1.231828e-02 -1.359260e-43
-1.206829e-02 -3.110883e-43
-1.181829e-02 -4.400077e-43
-1.156829e-02 -4.540207e-43
-1.131828e-02 -2.942727e-43
-1.106828e-02 5.745324e-44
-1.081829e-02 5.380986e-43
-1.056829e-02 1.032757e-42
-1.031829e-02 1.335437e-42
-1.006828e-02 1.251360e-42
-9.818286e-03 6.319856e-43
-9.568289e-03 -5.030661e-43
-9.318292e-03 -1.957614e-42
-9.068280e-03 -3.274835e-42
-8.818284e-03 -3.902616e-42
-8.568287e-03 -3.272032e-42
-8.318290e-03 -1.090210e-42
-8.068293e-03 2.478897e-42
-7.818282e-03 6.629543e-42
-7.568285e-03 9.999666e-42
-7.318288e-03 1.093433e-41
-7.068291e-03 8.008421e-42
-6.818295e-03 7.118596e-43
-6.568283e-03 -9.985653e-42
-6.318286e-03 -2.136980e-41
-6.068289e-03 -2.931657e-41
-5.818292e-03 -2.927593e-41
-5.568281e-03 -1.788057e-41
-5.318284e-03 5.226843e-42
-5.068287e-03 3.601898e-41
-4.818290e-03 6.578115e-41
-4.568294e-03 8.259954e-41
-4.318282e-03 7.458691e-41
-4.068285e-03 3.453220e-41
-3.818288e-03 -3.534355e-41
-3.568292e-03 -1.203954e-40
-3.318280e-03 -1.941079e-40
-3.068283e-03 -2.235057e-40
-2.818286e-03 -1.792317e-40
-2.568290e-03 -4.834900e-41
-2.318293e-03 1.540181e-40
-2.068281e-03 3.791605e-40
-1.818284e-03 5.500503e-40
-1.568288e-03 5.795476e-40
-1.318291e-03 3.998661e-40
-1.068294e-03 -3.702231e-42
-8.182824e-04 -5.660713e-40
-5.682856e-04 -1.135678e-39
-3.182888e-04 -1.498368e-39
-6.829202e-05 -1.434711e-39
1.817197e-04 -8.017669e-40
4.317164e-04 3.823639e-40
6.817132e-04 1.882722e-39
9.317100e-04 3.252813e-39
1.181707e-03 3.922732e-39
1.431718e-03 3.368553e-39
1.681715e-03 1.329275e-39
1.931712e-03 -1.993091e-39
2.181709e-03 -5.833147e-39
2.431706e-03 -8.937772e-39
2.681717e-03 -9.855981e-39
2.931714e-03 -7.413759e-39
3.181711e-03 -1.263193e-39
3.431708e-03 7.674801e-39
3.681719e-03 1.708242e-38
3.931716e-03 2.359790e-38
4.181713e-03 2.369513e-38
4.431710e-03 1.495283e-38
4.681706e-03 -2.623211e-39
4.931718e-03 -2.570519e-38
5.181715e-03 -4.767189e-38
5.431712e-03 -5.988943e-38
5.681708e-03 -5.421963e-38
5.931720e-03 -2.625781e-38
6.181717e-03 2.165481e-38
6.431714e-03 7.886143e-38
6.681710e-03 1.273757e-37
6.931707e-03 1.459756e-37
7.181719e-03 1.169837e-37
7.431716e-03 3.415115e-38
7.681713e-03 -9.092196e-38
7.931709e-03 -2.267590e-37
8.181706e-03 -3.266962e-37
8.431718e-03 -3.409122e-37
8.681715e-03 -2.338881e-37
8.931711e-03 -2.678295e-39
9.181708e-03 3.105580e-37
9.431720e-03 6.184564e-37
9.681717e-03 8.051604e-37
9.931713e-03 7.594639e-37
1.018171e-02 4.177296e-37
1.043171e-02 -1.960407e-37
1.068172e-02 -9.488800e-37
1.093172e-02 -1.610681e-36
1.118171e-02 -1.906138e-36
1.143171e-02 -1.601236e-36
1.168172e-02 -6.039119e-37
1.193172e-02 9.536543e-37
1.218171e-02 2.687898e-36
1.243171e-02 4.020608e-36
1.268171e-02 4.326784e-36
1.293172e-02 3.149517e-36
1.318172e-02 4.247377e-37
1.343171e-02 -3.363950e-36
1.368171e-02 -7.180986e-36
1.393171e-02 -9.636705e-36
1.418172e-02 -9.381309e-36
1.443172e-02 -5.614254e-36
1.468171e-02 1.440751e-36
1.493171e-02 1.028164e-35
1.518172e-02 1.826081e-35
1.543172e-02 2.218241e-35
1.568171e-02 1.929549e-35
1.593171e-02 8.446481e-36
1.618171e-02 -8.981419e-36
1.643172e-02 -2.875574e-35
1.668172e-02 -4.442608e-35
1.693171e-02 -4.897070e-35
1.718171e-02 -3.717965e-35
1.743171e-02 -8.135656e-36
1.768172e-02 3.308476e-35
1.793171e-02 7.536150e-35
1.818171e-02 1.036732e-34
1.843171e-02 1.033407e-34
1.868172e-02 6.548227e-35
1.893172e-02 -7.933661e-36
1.918171e-02 -1.014090e-34
1.943171e-02 -1.873302e-34
1.968171e-02 -2.322361e-34
1.993172e-02 -2.071608e-34
2.018172e-02 -9.954418e-35
2.043171e-02 7.714513e-35
2.068171e-02 2.802837e-34
2.093172e-02 4.446002e-34
2.118172e-02 4.988979e-34
2.143171e-02 3.900385e-34
2.168171e-02 1.076811e-34
2.193171e-02 -2.989820e-34
2.218172e-02 -7.209903e-34
2.243172e-02 -1.010963e-33
2.268171e-02 -1.024787e-33
2.293171e-02 -6.746602e-34
2.318171e-02 2.234829e-35
2.343172e-02 9.191213e-34
2.368172e-02 1.752819e-33
2.393171e-02 2.205252e-33
2.418171e-02 2.001150e-33
2.443172e-02 1.019994e-33
2.468172e-02 -6.149690e-34
2.493171e-02 -2.509432e-33
2.518171e-02 -4.060383e-33
2.543171e-02 -4.611899e-33
2.568172e-02 -3.675431e-33
2.593172e-02 -1.153999e-33
2.618171e-02 2.509410e-33
2.643171e-02 6.334612e-33
2.668172e-02 9.000834e-33
2.693172e-02 9.222337e-33
2.718171e-02 6.219296e-33
2.743171e-02 1.420139e-34
2.768171e-02 -7.717306e-33
2.793172e-02 -1.506196e-32
2.818172e-02 -1.912719e-32
2.843171e-02 -1.753643e-32
2.868171e-02 -9.260564e-33
2.893171e-02 4.634489e-33
2.918172e-02 2.077978e-32
2.943172e-02 3.406045e-32
2.968171e-02 3.895309e-32
2.993171e-02 3.138220e-32
3.018172e-02 1.057630e-32
3.043172e-02 -1.974036e-32
3.068171e-02 -5.143063e-32
3.093171e-02 -7.362449e-32
3.118171e-02 -7.583655e-32
3.143172e-02 -5.180297e-32
3.168172e-02 -2.866039e-33
3.193171e-02 6.042513e-32
3.218171e-02 1.195553e-31
3.243172e-02 1.524562e-31
3.268172e-02 1.403809e-31
3.293172e-02 7.545713e-32
3.318171e-02 -3.358561e-32
3.343171e-02 -1.600462e-31
3.368172e-02 -2.638967e-31
3.393172e-02 -3.024035e-31
3.418171e-02 -2.445450e-31
3.443171e-02 -8.511949e-32
3.468171e-02 1.465554e-31
3.493172e-02 3.878703e-31
3.518172e-02 5.562733e-31
3.543171e-02 5.732064e-31
3.568171e-02 3.929242e-31
3.593172e-02 2.726830e-32
3.618172e-02 -4.434475e-31
3.643171e-02 -8.809220e-31
3.668171e-02 -1.122585e-30
3.693171e-02 -1.032653e-30
3.718172e-02 -5.569642e-31
3.743172e-02 2.368379e-31
3.768171e-02 1.151739e-30
3.793171e-02 1.897503e-30
3.818171e-02 2.168972e-30
3.843172e-02 1.749681e-30
3.868172e-02 6.106828e-31
3.893171e-02 -1.031531e-30
3.918171e-02 -2.728825e-30
3.943172e-02 -3.900270e-30
3.968172e-02 -4.002735e-30
3.993171e-02 -2.731217e-30
4.018171e-02 -1.858403e-31
4.043171e-02 3.061657e-30
4.068172e-02 6.050536e-30
4.093172e-02 7.670951e-30
4.118171e-02 7.016050e-30
4.143171e-02 3.750272e-30
4.168172e-02 -1.631461e-30
4.193172e-02 -7.771799e-30
4.218172e-02 -1.271361e-29
4.243171e-02 -1.443754e-29
4.268171e-02 -1.155347e-29
4.293172e-02 -3.940774e-30
4.318172e-02 6.899298e-30
4.343171e-02 1.797337e-29
4.368171e-02 2.547934e-29
4.393171e-02 2.593857e-29
4.418172e-02 1.748901e-29
4.443172e-02 9.254394e-31
4.468171e-02 -1.993842e-29
4.493171e-02 -3.887537e-29
4.518172e-02 -4.883852e-29
4.543172e-02 -4.422227e-29
4.568172e-02 -2.315977e-29
4.593171e-02 1.093716e-29
4.618171e-02 4.931404e-29
4.643172e-02 7.965710e-29
4.668172e-02 8.953923e-29
4.693171e-02 7.071747e-29
4.718171e-02 2.298400e-29
4.743172e-02 -4.387746e-29
4.768172e-02 -1.111556e-28
4.793172e-02 -1.556309e-28
4.818171e-02 -1.565925e-28
4.843171e-02 -1.036150e-28
4.868172e-02 -2.560546e-30
4.893172e-02 1.226901e-28
4.918171e-02 2.343679e-28
4.943171e-02 2.907216e-28
4.968171e-02 2.595810e-28
4.993172e-02 1.317035e-28
5.018172e-02 -7.078483e-29
5.043171e-02 -2.949041e-28
5.068171e-02 -4.681541e-28
5.093172e-02 -5.191862e-28
5.118172e-02 -4.027606e-28
5.143172e-02 -1.212951e-28
5.168171e-02 2.652350e-28
5.193171e-02 6.470993e-28
5.218172e-02 8.915903e-28
5.243172e-02 8.837445e-28
5.268171e-02 5.700253e-28
5.293171e-02 -9.511389e-30
5.318171e-02 -7.142520e-28
5.343172e-02 -1.329278e-27
5.368172e-02 -1.623094e-27
5.393171e-02 -1.423836e-27
5.418171e-02 -6.916663e-28
5.443172e-02 4.384967e-28
5.468172e-02 1.665194e-27
5.493172e-02 2.587897e-27
5.518171e-02 2.823363e-27
5.543171e-02 2.141386e-27
5.568172e-02 5.772646e-28
5.593172e-02 -1.522837e-27
5.618171e-02 -3.553821e-27
5.643171e-02 -4.803965e-27
5.668172e-02 -4.676726e-27
5.693172e-02 -2.920540e-27
5.718172e-02 2.108544e-28
5.743171e-02 3.937645e-27
5.768171e-02 7.109667e-27
5.793172e-02 8.522577e-27
5.818172e-02 7.319816e-27
5.843171e-02 3.360175e-27
5.868171e-02 -2.582654e-27
5.893171e-02 -8.892649e-27
5.918172e-02 -1.348849e-26
5.943172e-02 -1.443943e-26
5.968171e-02 -1.065852e-26
5.993171e-02 -2.451196e-27
6.018172e-02 8.299189e-27
6.043172e-02 1.844826e-26
6.068172e-02 2.440547e-26
6.093171e-02 2.327059e-26
6.118171e-02 1.396857e-26
6.143172e-02 -2.006772e-27
6.168172e-02 -2.057542e-26
6.193171e-02 -3.593562e-26
6.218171e-02 -4.219446e-26
6.243172e-02 -3.536265e-26
6.268172e-02 -1.510516e-26
6.293172e-02 1.440164e-26
6.318171e-02 4.498090e-26
6.343171e-02 6.643657e-26
6.368172e-02 6.962496e-26
6.393172e-02 4.978589e-26
6.418172e-02 9.047292e-27
6.443171e-02 -4.291891e-26
6.468171e-02 -9.068397e-26
6.493172e-02 -1.171706e-25
6.518172e-02 -1.091424e-25
6.543171e-02 -6.247618e-26
6.568171e-02 1.462743e-26
6.593172e-02 1.019960e-25
6.618172e-02 1.719874e-25
6.643172e-02 1.974223e-25
6.668171e-02 1.609212e-25
6.693171e-02 6.273639e-26
6.718172e-02 -7.588269e-26
6.743172e-02 -2.158120e-25
6.768171e-02 -3.098640e-25
6.793171e-02 -3.172512e-25
6.818172e-02 -2.186801e-25
6.843172e-02 -2.706291e-26
6.868172e-02 2.106451e-25
6.893171e-02 4.228209e-25
6.918171e-02 5.327309e-25
6.943172e-02 4.835789e-25
6.968172e-02 2.615851e-25
6.993172e-02 -9.112607e-26
7.018171e-02 -4.801477e-25
7.043171e-02 -7.808368e-25
7.068172e-02 -8.748053e-25
7.093172e-02 -6.912013e-25
7.118171e-02 -2.396830e-25
7.143171e-02 3.776710e-25
7.168172e-02 9.835241e-25
7.193172e-02 1.371159e-24
7.218172e-02 1.368908e-24
7.243171e-02 9.047550e-25
7.268171e-02 4.927697e-26
7.293172e-02 -9.816820e-25
7.318172e-02 -1.872984e-24
7.343172e-02 -2.298273e-24
7.368171e-02 -2.028155e-24
7.393171e-02 -1.025537e-24
7.418172e-02 5.064338e-25
7.443172e-02 2.148829e-24
7.468171e-02 3.368758e-24
7.493171e-02 3.678327e-24
7.518172e-02 2.807419e-24
7.543172e-02 8.344430e-25
7.568172e-02 -1.776774e-24
7.593171e-02 -4.263451e-24
7.618171e-02 -5.766824e-24
7.643172e-02 -5.604142e-24
7.668172e-02 -3.530362e-24
7.693172e-02 1.006667e-25
7.718171e-02 4.347905e-24
7.743172e-02 7.894788e-24
7.768172e-02 9.425227e-24
7.793172e-02 8.066466e-24
7.818171e-02 3.761510e-24
7.843171e-02 -2.566967e-24
7.868172e-02 -9.153379e-24
7.893172e-02 -1.383375e-23
7.918172e-02 -1.470276e-23
7.943171e-02 -1.079933e-23
7.968171e-02 -2.595296e-24
7.993172e-02 7.912075e-24
8.018172e-02 1.760402e-23
8.043171e-02 2.309156e-23
8.068171e-02 2.180584e-23
8.093172e-02 1.300247e-23
8.118172e-02 -1.672493e-24
8.143172e-02 -1.832126e-23
8.168171e-02 -3.171261e-23
8.193171e-02 -3.680593e-23
8.218172e-02 -3.047334e-23
8.243172e-02 -1.287586e-23
8.268172e-02 1.202787e-23
8.293171e-02 3.715893e-23
8.318172e-02 5.415695e-23
8.343172e-02 5.596126e-23
8.368172e-02 3.939443e-23
8.393171e-02 6.883372e-24
8.418171e-02 -3.340601e-23
8.443172e-02 -6.933276e-23
8.468172e-02 -8.817221e-23
8.493172e-02 -8.077250e-23
8.518171e-02 -4.521253e-23
8.543171e-02 1.134754e-23
8.568172e-02 7.354363e-23
8.593172e-02 1.215749e-22
8.618172e-02 1.370797e-22
8.643171e-02 1.095059e-22
8.668172e-02 4.092502e-23
8.693172e-02 -5.257535e-23
8.718172e-02 -1.439515e-22
8.743171e-02 -2.024255e-22
8.768171e-02 -2.031394e-22
8.793172e-02 -1.364135e-22
8.818172e-02 -1.345366e-23
8.843172e-02 1.339809e-22
8.868171e-02 2.608190e-22
8.893172e-02 3.215362e-22
8.918172e-02 2.852468e-22
8.943172e-02 1.483571e-22
8.968171e-02 -5.983547e-23
8.993171e-02 -2.816042e-22
9.018172e-02 -4.454419e-22
9.043172e-02 -4.876503e-22
9.068172e-02 -3.747831e-22
9.093171e-02 -1.196007e-22
9.118171e-02 2.158154e-22
9.143172e-02 5.328675e-22
9.168172e-02 7.234309e-22
9.193172e-02 7.042848e-22
9.218171e-02 4.487021e-22
9.243172e-02 4.233621e-24
9.268172e-02 -5.114070e-22
9.293172e-02 -9.384264e-22
9.318171e-02 -1.121421e-21
9.343171e-02 -9.616585e-22
9.368172e-02 -4.586814e-22
9.393172e-02 2.742397e-22
9.418172e-02 1.030029e-21
9.443171e-02 1.561956e-21
9.468171e-02 1.659335e-21
9.493172e-02 1.222948e-21
9.518172e-02 3.151054e-22
9.543172e-02 -8.361780e-22
9.568171e-02 -1.887333e-21
9.593172e-02 -2.475382e-21
9.618172e-02 -2.335220e-21
9.643172e-02 -1.402329e-21
9.668171e-02 1.353438e-22
9.693171e-02 1.861287e-21
9.718172e-02 3.233677e-21
9.743172e-02 3.745736e-21
9.768172e-02 3.098719e-21
9.793171e-02 1.332035e-21
9.818172e-02 -1.138973e-21
9.843172e-02 -3.604030e-21
9.868172e-02 -5.248639e-21
9.893171e-02 -5.407762e-21
9.918171e-02 -3.807872e-21
9.943172e-02 -7.155482e-22
9.968172e-02 3.070475e-21
9.993172e-02 6.404345e-21
1.001817e-01 8.120216e-21
1.004317e-01 7.414240e-21
1.006817e-01 4.163193e-21
1.009317e-01 -9.349114e-22
1.011817e-01 -6.470855e-21
1.014317e-01 -1.068515e-20
1.016817e-01 -1.199735e-20
1.019317e-01 -9.553335e-21
1.021817e-01 -3.612532e-21
1.024317e-01 4.376163e-21
1.026817e-01 1.207984e-20
1.029317e-01 1.692276e-20
1.031817e-01 1.690005e-20
1.034317e-01 1.132030e-20
1.036817e-01 1.221804e-21
1.039317e-01 -1.072165e-20
1.041817e-01 -2.084737e-20
1.044317e-01 -2.556855e-20
1.046817e-01 -2.256550e-20
1.049317e-01 -1.172908e-20
1.051817e-01 4.490117e-21
1.054317e-01 2.152580e-20
1.056817e-01 3.389917e-20
1.059317e-01 3.689203e-20
1.061817e-01 2.820495e-20
1.064317e-01 9.052392e-21
1.066817e-01 -1.574438e-20
1.069317e-01 -3.883780e-20
1.071817e-01 -5.241573e-20
1.074317e-01 -5.070290e-20
1.076817e-01 -3.214059e-20
1.079317e-01 -4.825845e-22
1.081817e-01 3.570267e-20
1.084317e-01 6.518019e-20
1.086817e-01 7.736857e-20
1.089317e-01 6.590192e-20
1.091817e-01 3.129634e-20
1.094317e-01 -1.827746e-20
1.096817e-01 -6.862860e-20
1.099317e-01 -1.033787e-19
1.101817e-01 -1.090339e-19
1.104317e-01 -7.979935e-20
1.106817e-01 -2.052157e-20
1.109317e-01 5.346188e-20
1.111817e-01 1.199317e-19
1.114317e-01 1.561391e-19
1.116817e-01 1.461844e-19
1.119317e-01 8.714189e-20
1.121817e-01 -8.247118e-21
1.124317e-01 -1.136531e-19
1.126817e-01 -1.959654e-19
1.129317e-01 -2.252249e-19
1.131817e-01 -1.848437e-19
1.134317e-01 -7.880181e-20
1.136817e-01 6.693734e-20
1.139317e-01 2.100182e-19
1.141817e-01 3.033842e-19
1.144317e-01 3.100420e-19
1.146817e-01 2.164710e-19
1.149317e-01 4.011155e-20
1.151817e-01 -1.722941e-19
1.154317e-01 -3.561540e-19
1.156817e-01 -4.478031e-19
1.159317e-01 -4.054150e-19
1.161817e-01 -2.254825e-19
1.164317e-01 5.108661e-20
1.166817e-01 3.465981e-19
1.169317e-01 5.671934e-19
1.171817e-01 6.314006e-19
1.174317e-01 4.982979e-19
1.176817e-01 1.860465e-19
1.179317e-01 -2.264977e-19
1.181817e-01 -6.177689e-19
1.184317e-01 -8.576972e-19
1.186817e-01 -8.490309e-19
1.189317e-01 -5.631804e-19
1.191817e-01 -5.820389e-20
1.194317e-01 5.291917e-19
1.196817e-01 1.018295e-18
1.199317e-01 1.237727e-18
1.201817e-01 1.082414e-18
1.204317e-01 5.560884e-19
1.206817e-01 -2.163650e-19
1.209317e-01 -1.014480e-18
1.211817e-01 -1.582088e-18
1.214317e-01 -1.706242e-18
1.216817e-01 -1.291848e-18
1.219317e-01 -4.071283e-19
1.221817e-01 7.184480e-19
1.224317e-01 1.748968e-18
1.226817e-01 2.338234e-18
1.229317e-01 2.241041e-18
1.231817e-01 1.405208e-18
1.234317e-01 1.205592e-20
1.236817e-01 -1.554108e-18
1.239317e-01 -2.806198e-18
1.241817e-01 -3.300120e-18
1.244317e-01 -2.784181e-18
1.246817e-01 -1.304032e-18
1.249317e-01 7.763757e-19
1.251817e-01 2.854695e-18
1.254317e-01 4.257107e-18
1.256817e-01 4.448431e-18
1.259317e-01 3.222315e-18
1.261817e-01 8.073369e-19
1.264317e-01 -2.155435e-18
1.266817e-01 -4.771411e-18
1.269317e-01 -6.152559e-18
1.271817e-01 -5.706071e-18
1.274317e-01 -3.361322e-18
1.276817e-01 3.458093e-19
1.279317e-01 4.375407e-18
1.281817e-01 7.461423e-18
1.284317e-01 8.495374e-18
1.286817e-01 6.903778e-18
1.289317e-01 2.896133e-18
1.291817e-01 -2.511941e-18
1.294317e-01 -7.734097e-18
1.296817e-01 -1.106075e-17
1.299317e-01 -1.119819e-17
1.301817e-01 -7.735121e-18
1.304317e-01 -1.377177e-18
1.306817e-01 6.153227e-18
1.309317e-01 1.255766e-17
1.311817e-01 1.563925e-17
1.314317e-01 1.402462e-17
1.316817e-01 7.701626e-18
1.319317e-01 -1.822209e-18
1.321817e-01 -1.183486e-17
1.324317e-01 -1.916010e-17
1.326817e-01 -2.113147e-17
1.329317e-01 -1.651113e-17
1.331817e-01 -6.050192e-18
1.334317e-01 7.530969e-18
1.336817e-01 2.020100e-17
1.339317e-01 2.777287e-17
1.341817e-01 2.723839e-17
1.344317e-01 1.787013e-17
1.346817e-01 1.709208e-18
1.349317e-01 -1.678702e-17
1.351817e-01 -3.191628e-17
1.354317e-01 -3.843384e-17
1.356817e-01 -3.329453e-17
1.359317e-01 -1.687620e-17
1.361817e-01 6.767316e-18
1.364317e-01 3.081153e-17
1.366817e-01 4.755928e-17
1.369317e-01 5.082679e-17
1.371817e-01 3.810074e-17
1.374317e-01 1.174610e-17
1.376817e-01 -2.122879e-17
1.379317e-01 -5.092874e-17
1.381817e-01 -6.744817e-17
1.384317e-01 -6.406021e-17
1.386817e-01 -3.972333e-17
1.389317e-01 -2.491199e-20
1.391817e-01 4.390996e-17
1.394317e-01 7.840942e-17
1.396817e-01 9.138410e-17
1.399317e-01 7.638502e-17
1.401817e-01 3.527529e-17
1.404317e-01 -2.149154e-17
1.406817e-01 -7.732855e-17
1.409317e-01 -1.142048e-16