-1.388183e-01 0.000000e+00
-1.385683e-01 0.000000e+00
-1.383183e-01 0.000000e+00
-1.380683e-01 0.000000e+00
-1.378183e-01 0.000000e+00
-1.375683e-01 0.000000e+00
-1.373183e-01 0.000000e+00
-1.370683e-01 0.000000e+00
-1.368183e-01 0.000000e+00
-1.365683e-01 0.000000e+00
-1.363183e-01 0.000000e+00
-1.360683e-01 0.000000e+00
-1.358183e-01 0.000000e+00
-1.355683e-01 0.000000e+00
-1.353183e-01 0.000000e+00
-1.350683e-01 0.000000e+00
-1.348183e-01 0.000000e+00
-1.345683e-01 0.000000e+00
-1.343183e-01 0.000000e+00
-1.340683e-01 0.000000e+00
-1.338183e-01 0.000000e+00
-1.335683e-01 0.000000e+00
-1.333183e-01 0.000000e+00
-1.330683e-01 0.000000e+00
-1.328183e-01 0.000000e+00
-1.325683e-01 0.000000e+00
-1.323183e-01 0.000000e+00
-1.320683e-01 0.000000e+00
-1.318183e-01 0.000000e+00
-1.315683e-01 0.000000e+00
-1.313183e-01 0.000000e+00
-1.310683e-01 0.000000e+00
-1.308183e-01 0.000000e+00
-1.305683e-01 0.000000e+00
-1.303183e-01 0.000000e+00
-1.300683e-01 0.000000e+00
-1.298183e-01 0.000000e+00
-1.295683e-01 0.000000e+00
-1.293183e-01 0.000000e+00
-1.290683e-01 0.000000e+00
-1.288183e-01 0.000000e+00
-1.285683e-01 0.000000e+00
-1.283183e-01 0.000000e+00
-1.280683e-01 0.000000e+00
-1.278183e-01 0.000000e+00
-1.275683e-01 0.000000e+00
-1.273183e-01 0.000000e+00
-1.270683e-01 0.000000e+00
-1.268183e-01 0.000000e+00
-1.265683e-01 0.000000e+00
-1.263183e-01 0.000000e+00
-1.260683e-01 0.000000e+00
-1.258183e-01 0.000000e+00
-1.255683e-01 0.000000e+00
-1.253183e-01 0.000000e+00
-1.250683e-01 0.000000e+00
-1.248183e-01 0.000000e+00
-1.245683e-01 0.000000e+00
-1.243183e-01 0.000000e+00
-1.240683e-01 0.000000e+00
-1.238183e-01 0.000000e+00
-1.235683e-01 0.000000e+00
-1.233183e-01 0.000000e+00
-1.230683e-01 0.000000e+00
-1.228183e-01 0.000000e+00
-1.225683e-01 0.000000e+00
-1.223183e-01 0.000000e+00
-1.220683e-01 0.000000e+00
-1.218183e-01 0.000000e+00
-1.215683e-01 0.000000e+00
-1.213183e-01 0.000000e+00
-1.210683e-01 0.000000e+00
-1.208183e-01 0.000000e+00
-1.205683e-01 0.000000e+00
-1.203183e-01 0.000000e+00
-1.200683e-01 0.000000e+00
-1.198183e-01 0.000000e+00
-1.195683e-01 0.000000e+00
-1.193183e-01 0.000000e+00
-1.190683e-01 0.000000e+00
-1.188183e-01 0.000000e+00
-1.185683e-01 0.000000e+00
-1.183183e-01 0.000000e+00
-1.180683e-01 0.000000e+00
-1.178183e-01 0.000000e+00
-1.175683e-01 0.000000e+00
-1.173183e-01 0.000000e+00
-1.170683e-01 0.000000e+00
-1.168183e-01 0.000000e+00
-1.165683e-01 0.000000e+00
-1.163183e-01 0.000000e+00
-1.160683e-01 0.000000e+00
-1.158183e-01 0.000000e+00
-1.155683e-01 0.000000e+00
-1.153183e-01 0.000000e+00
-1.150683e-01 0.000000e+00
-1.148183e-01 0.000000e+00
-1.145683e-01 0.000000e+00
-1.143183e-01 0.000000e+00
-1.140683e-01 0.000000e+00
-1.138183e-01 0.000000e+00
-1.135683e-01 0.000000e+00
-1.133183e-01 0.000000e+00
-1.130683e-01 0.000000e+00
-1.128183e-01 0.000000e+00
-1.125683e-01 0.000000e+00
-1.123183e-01 0.000000e+00
-1.120683e-01 0.000000e+00
-1.118183e-01 0.000000e+00
-1.115683e-01 0.000000e+00
-1.113183e-01 0.000000e+00
-1.110683e-01 0.000000e+00
-1.108183e-01 0.000000e+00
-1.105683e-01 0.000000e+00
-1.103183e-01 0.000000e+00
-1.100683e-01 0.000000e+00
-1.098183e-01 0.000000e+00
-1.095683e-01 0.000000e+00
-1.093183e-01 0.000000e+00
-1.090683e-01 0.000000e+00
-1.088183e-01 0.000000e+00
-1.085683e-01 0.000000e+00
-1.083183e-01 0.000000e+00
-1.080683e-01 0.000000e+00
-1.078183e-01 0.000000e+00
-1.075683e-01 0.000000e+00
-1.073183e-01 0.000000e+00
-1.070683e-01 0.000000e+00
-1.068183e-01 0.000000e+00
-1.065683e-01 0.000000e+00
-1.063183e-01 0.000000e+00
-1.060683e-01 0.000000e+00
-1.058183e-01 0.000000e+00
-1.055683e-01 0.000000e+00
-1.053183e-01 0.000000e+00
-1.050683e-01 0.000000e+00
-1.048183e-01 0.000000e+00
-1.045683e-01 0.000000e+00
-1.043183e-01 0.000000e+00
-1.040683e-01 0.000000e+00
-1.038183e-01 0.000000e+00
-1.035683e-01 0.000000e+00
-1.033183e-01 0.000000e+00
-1.030683e-01 0.000000e+00
-1.028183e-01 0.000000e+00
-1.025683e-01 0.000000e+00
-1.023183e-01 0.000000e+00
-1.020683e-01 0.000000e+00
-1.018183e-01 0.000000e+00
-1.015683e-01 0.000000e+00
-1.013183e-01 0.000000e+00
-1.010683e-01 0.000000e+00
-1.008183e-01 0.000000e+00
-1.005683e-01 0.000000e+00
-1.003183e-01 0.000000e+00
-1.000683e-01 0.000000e+00
-9.981829e-02 0.000000e+00
-9.956829e-02 0.000000e+00
-9.931830e-02 0.000000e+00
-9.906829e-02 0.000000e+00
-9.881829e-02 0.000000e+00
-9.856829e-02 0.000000e+00
-9.831829e-02 0.000000e+00
-9.806830e-02 0.000000e+00
-9.781829e-02 0.000000e+00
-9.756829e-02 0.000000e+00
-9.731829e-02 0.000000e+00
-9.706829e-02 0.000000e+00
-9.681829e-02 0.000000e+00
-9.656829e-02 0.000000e+00
-9.631829e-02 0.000000e+00
-9.606829e-02 0.000000e+00
-9.581830e-02 0.000000e+00
-9.556829e-02 0.000000e+00
-9.531829e-02 0.000000e+00
-9.506829e-02 0.000000e+00
-9.481829e-02 0.000000e+00
-9.456830e-02 0.000000e+00
-9.431829e-02 0.000000e+00
-9.406829e-02 0.000000e+00
-9.381829e-02 0.000000e+00
-9.356830e-02 0.000000e+00
-9.331829e-02 0.000000e+00
-9.306829e-02 0.000000e+00
-9.281829e-02 0.000000e+00
-9.256829e-02 0.000000e+00
-9.231830e-02 0.000000e+00
-9.206829e-02 0.000000e+00
-9.181829e-02 0.000000e+00
-9.156829e-02 0.000000e+00
-9.131829e-02 0.000000e+00
-9.106829e-02 0.000000e+00
-9.081829e-02 0.000000e+00
-9.056829e-02 0.000000e+00
-9.031829e-02 0.000000e+00
-9.006830e-02 0.000000e+00
-8.981829e-02 0.000000e+00
-8.956829e-02 0.000000e+00
-8.931829e-02 0.000000e+00
-8.906829e-02 0.000000e+00
-8.881830e-02 0.000000e+00
-8.856829e-02 0.000000e+00
-8.831829e-02 0.000000e+00
-8.806829e-02 0.000000e+00
-8.781829e-02 0.000000e+00
-8.756829e-02 0.000000e+00
-8.731829e-02 0.000000e+00
-8.706829e-02 0.000000e+00
-8.681829e-02 0.000000e+00
-8.656830e-02 0.000000e+00
-8.631829e-02 0.000000e+00
-8.606829e-02 0.000000e+00
-8.581829e-02 0.000000e+00
-8.556829e-02 0.000000e+00
-8.531829e-02 0.000000e+00
-8.506829e-02 0.000000e+00
-8.481829e-02 0.000000e+00
-8.456829e-02 0.000000e+00
-8.431830e-02 0.000000e+00
-8.406829e-02 0.000000e+00
-8.381829e-02 0.000000e+00
-8.356829e-02 0.000000e+00
-8.331829e-02 0.000000e+00
-8.306830e-02 0.000000e+00
-8.281829e-02 0.000000e+00
-8.256829e-02 0.000000e+00
-8.231829e-02 0.000000e+00
-8.206829e-02 0.000000e+00
-8.181829e-02 0.000000e+00
-8.156829e-02 0.000000e+00
-8.131829e-02 0.000000e+00
-8.106829e-02 0.000000e+00
-8.081830e-02 0.000000e+00
-8.056829e-02 0.000000e+00
-8.031829e-02 0.000000e+00
-8.006829e-02 0.000000e+00
-7.981829e-02 0.000000e+00
-7.956829e-02 0.000000e+00
-7.931829e-02 0.000000e+00
-7.906829e-02 0.000000e+00
-7.881829e-02 0.000000e+00
-7.856829e-02 0.000000e+00
-7.831829e-02 0.000000e+00
-7.806829e-02 0.000000e+00
-7.781829e-02 0.000000e+00
-7.756829e-02 0.000000e+00
-7.731830e-02 0.000000e+00
-7.706829e-02 0.000000e+00
-7.681829e-02 0.000000e+00
-7.656829e-02 0.000000e+00
-7.631829e-02 0.000000e+00
-7.606829e-02 0.000000e+00
-7.581829e-02 0.000000e+00
-7.556829e-02 0.000000e+00
-7.531829e-02 0.000000e+00
-7.506829e-02 0.000000e+00
-7.481829e-02 0.000000e+00
-7.456829e-02 0.000000e+00
-7.431829e-02 0.000000e+00
-7.406829e-02 0.000000e+00
-7.381829e-02 0.000000e+00
-7.356829e-02 0.000000e+00
-7.331829e-02 0.000000e+00
-7.306829e-02 0.000000e+00
-7.281829e-02 0.000000e+00
-7.256829e-02 0.000000e+00
-7.231829e-02 0.000000e+00
-7.206829e-02 0.000000e+00
-7.181829e-02 0.000000e+00
-7.156829e-02 0.000000e+00
-7.131829e-02 0.000000e+00
-7.106829e-02 0.000000e+00
-7.081829e-02 0.000000e+00
-7.056829e-02 0.000000e+00
-7.031829e-02 0.000000e+00
-7.006829e-02 0.000000e+00
-6.981829e-02 0.000000e+00
-6.956829e-02 0.000000e+00
-6.931829e-02 0.000000e+00
-6.906829e-02 0.000000e+00
-6.881829e-02 0.000000e+00
-6.856829e-02 0.000000e+00
-6.831829e-02 0.000000e+00
-6.806829e-02 0.000000e+00
-6.781829e-02 0.000000e+00
-6.756829e-02 0.000000e+00
-6.731829e-02 0.000000e+00
-6.706829e-02 0.000000e+00
-6.681829e-02 0.000000e+00
-6.656829e-02 0.000000e+00
-6.631829e-02 0.000000e+00
-6.606829e-02 0.000000e+00
-6.581829e-02 0.000000e+00
-6.556829e-02 0.000000e+00
-6.531829e-02 0.000000e+00
-6.506829e-02 0.000000e+00
-6.481829e-02 0.000000e+00
-6.456829e-02 0.000000e+00
-6.431829e-02 0.000000e+00
-6.406829e-02 0.000000e+00
-6.381829e-02 0.000000e+00
-6.356829e-02 0.000000e+00
-6.331829e-02 0.000000e+00
-6.306829e-02 0.000000e+00
-6.281829e-02 0.000000e+00
-6.256829e-02 0.000000e+00
-6.231829e-02 0.000000e+00
-6.206829e-02 0.000000e+00
-6.181829e-02 0.000000e+00
-6.156829e-02 0.000000e+00
-6.131829e-02 0.000000e+00
-6.106829e-02 0.000000e+00
-6.081829e-02 0.000000e+00
-6.056829e-02 0.000000e+00
-6.031829e-02 0.000000e+00
-6.006829e-02 0.000000e+00
-5.981829e-02 0.000000e+00
-5.956829e-02 0.000000e+00
-5.931829e-02 0.000000e+00
-5.906829e-02 0.000000e+00
-5.881829e-02 0.000000e+00
-5.856829e-02 0.000000e+00
-5.831829e-02 0.000000e+00
-5.806829e-02 0.000000e+00
-5.781829e-02 0.000000e+00
-5.756829e-02 0.000000e+00
-5.731829e-02 0.000000e+00
-5.706829e-02 0.000000e+00
-5.681829e-02 0.000000e+00
-5.656829e-02 0.000000e+00
-5.631829e-02 0.000000e+00
-5.606829e-02 0.000000e+00
-5.581829e-02 0.000000e+00
-5.556829e-02 0.000000e+00
-5.531829e-02 0.000000e+00
-5.506829e-02 0.000000e+00
-5.481829e-02 0.000000e+00
-5.456829e-02 0.000000e+00
-5.431829e-02 0.000000e+00
-5.406829e-02 0.000000e+00
-5.381829e-02 0.000000e+00
-5.356829e-02 0.000000e+00
-5.331829e-02 0.000000e+00
-5.306829e-02 0.000000e+00
-5.281829e-02 0.000000e+00
-5.256829e-02 0.000000e+00
-5.231829e-02 0.000000e+00
-5.206829e-02 0.000000e+00
-5.181829e-02 0.000000e+00
-5.156829e-02 0.000000e+00
-5.131829e-02 0.000000e+00
-5.106829e-02 0.000000e+00
-5.081829e-02 0.000000e+00
-5.056829e-02 0.000000e+00
-5.031829e-02 0.000000e+00
-5.006829e-02 0.000000e+00
-4.981829e-02 0.000000e+00
-4.956829e-02 0.000000e+00
-4.931829e-02 0.000000e+00
-4.906829e-02 0.000000e+00
-4.881829e-02 0.000000e+00
-4.856829e-02 0.000000e+00
-4.831829e-02 0.000000e+00
-4.806829e-02 0.000000e+00
-4.781829e-02 0.000000e+00
-4.756829e-02 0.000000e+00
-4.731829e-02 0.000000e+00
-4.706829e-02 0.000000e+00
-4.681829e-02 0.000000e+00
-4.656829e-02 0.000000e+00
-4.631829e-02 0.000000e+00
-4.606829e-02 0.000000e+00
-4.581829e-02 0.000000e+00
-4.556829e-02 0.000000e+00
-4.531829e-02 0.000000e+00
-4.506829e-02 0.000000e+00
-4.481829e-02 0.000000e+00
-4.456829e-02 0.000000e+00
-4.431829e-02 0.000000e+00
-4.406829e-02 0.000000e+00
-4.381829e-02 0.000000e+00
-4.356829e-02 0.000000e+00
-4.331829e-02 0.000000e+00
-4.306829e-02 0.000000e+00
-4.281829e-02 0.000000e+00
-4.256829e-02 0.000000e+00
-4.231829e-02 0.000000e+00
-4.206829e-02 0.000000e+00
-4.181829e-02 0.000000e+00
-4.156829e-02 0.000000e+00
-4.131829e-02 0.000000e+00
-4.106829e-02 0.000000e+00
-4.081829e-02 0.000000e+00
-4.056829e-02 0.000000e+00
-4.031829e-02 0.000000e+00
-4.006829e-02 0.000000e+00
-3.981829e-02 0.000000e+00
-3.956829e-02 0.000000e+00
-3.931829e-02 0.000000e+00
-3.906829e-02 0.000000e+00
-3.881829e-02 0.000000e+00
-3.856829e-02 0.000000e+00
-3.831829e-02 0.000000e+00
-3.806829e-02 0.000000e+00
-3.781829e-02 0.000000e+00
-3.756829e-02 0.000000e+00
-3.731829e-02 0.000000e+00
-3.706829e-02 0.000000e+00
-3.681829e-02 0.000000e+00
-3.656829e-02 0.000000e+00
-3.631829e-02 0.000000e+00
-3.606829e-02 0.000000e+00
-3.581829e-02 0.000000e+00
-3.556829e-02 0.000000e+00
-3.531829e-02 0.000000e+00
-3.506829e-02 0.000000e+00
-3.481829e-02 0.000000e+00
-3.456829e-02 0.000000e+00
-3.431829e-02 0.000000e+00
-3.406829e-02 0.000000e+00
-3.381829e-02 0.000000e+00
-3.356829e-02 0.000000e+00
-3.331829e-02 0.000000e+00
-3.306829e-02 0.000000e+00
-3.281829e-02 0.000000e+00
-3.256829e-02 0.000000e+00
-3.231829e-02 0.000000e+00
-3.206829e-02 0.000000e+00
-3.181829e-02 0.000000e+00
-3.156829e-02 0.000000e+00
-3.131829e-02 0.000000e+00
-3.106829e-02 0.000000e+00
-3.081829e-02 0.000000e+00
-3.056829e-02 0.000000e+00
-3.031829e-02 0.000000e+00
-3.006829e-02 0.000000e+00
-2.981829e-02 0.000000e+00
-2.956829e-02 0.000000e+00
-2.931829e-02 0.000000e+00
-2.906829e-02 0.000000e+00
-2.881829e-02 0.000000e+00
-2.856829e-02 0.000000e+00
-2.831829e-02 0.000000e+00
-2.806829e-02 0.000000e+00
-2.781828e-02 0.000000e+00
-2.756829e-02 0.000000e+00
-2.731829e-02 0.000000e+00
-2.706829e-02 0.000000e+00
-2.681829e-02 0.000000e+00
-2.656829e-02 0.000000e+00
-2.631829e-02 0.000000e+00
-2.606829e-02 0.000000e+00
-2.581829e-02 0.000000e+00
-2.556829e-02 0.000000e+00
-2.531829e-02 0.000000e+00
-2.506829e-02 0.000000e+00
-2.481829e-02 0.000000e+00
-2.456829e-02 0.000000e+00
-2.431829e-02 0.000000e+00
-2.406829e-02 0.000000e+00
-2.381829e-02 0.000000e+00
-2.356829e-02 0.000000e+00
-2.331829e-02 0.000000e+00
-2.306829e-02 0.000000e+00
-2.281829e-02 0.000000e+00
-2.256829e-02 0.000000e+00
-2.231829e-02 0.000000e+00
-2.206829e-02 0.000000e+00
-2.181829e-02 0.000000e+00
-2.156829e-02 0.000000e+00
-2.131829e-02 0.000000e+00
-2.106829e-02 0.000000e+00
-2.081829e-02 0.000000e+00
-2.056829e-02 0.000000e+00
-2.031828e-02 0.000000e+00
-2.006829e-02 0.000000e+00
-1.981829e-02 0.000000e+00
-1.956829e-02 0.000000e+00
-1.931829e-02 0.000000e+00
-1.906829e-02 0.000000e+00
-1.881829e-02 0.000000e+00
-1.856828e-02 0.000000e+00
-1.831829e-02 0.000000e+00
-1.806829e-02 0.000000e+00
-1.781829e-02 0.000000e+00
-1.756829e-02 0.000000e+00
-1.731829e-02 0.000000e+00
-1.706829e-02 0.000000e+00
-1.681828e-02 0.000000e+00
-1.656829e-02 0.000000e+00
-1.631829e-02 0.000000e+00
-1.606829e-02 0.000000e+00
-1.581829e-02 0.000000e+00
-1.556829e-02 0.000000e+00
-1.531829e-02 0.000000e+00
-1.506829e-02 0.000000e+00
-1.481829e-02 0.000000e+00
-1.456829e-02 0.000000e+00
-1.431829e-02 0.000000e+00
-1.406829e-02 0.000000e+00
-1.381829e-02 0.000000e+00
-1.356828e-02 0.000000e+00
-1.331829e-02 0.000000e+00
-1.306829e-02 0.000000e+00
-1.281829e-02 0.000000e+00
-1.256830e-02 0.000000e+00
-1.231828e-02 0.000000e+00
-1.206829e-02 0.000000e+00
-1.181829e-02 0.000000e+00
-1.156829e-02 0.000000e+00
-1.131828e-02 0.000000e+00
-1.106828e-02 0.000000e+00
-1.081829e-02 0.000000e+00
-1.056829e-02 0.000000e+00
-1.031829e-02 0.000000e+00
-1.006828e-02 0.000000e+00
-9.818286e-03 0.000000e+00
-9.568289e-03 0.000000e+00
-9.318292e-03 0.000000e+00
-9.068280e-03 0.000000e+00
-8.818284e-03 0.000000e+00
-8.568287e-03 0.000000e+00
-8.318290e-03 0.000000e+00
-8.068293e-03 0.000000e+00
-7.818282e-03 0.000000e+00
-7.568285e-03 0.000000e+00
-7.318288e-03 0.000000e+00
-7.068291e-03 0.000000e+00
-6.818295e-03 0.000000e+00
-6.568283e-03 0.000000e+00
-6.318286e-03 0.000000e+00
-6.068289e-03 0.000000e+00
-5.818292e-03 0.000000e+00
-5.568281e-03 0.000000e+00
-5.318284e-03 0.000000e+00
-5.068287e-03 0.000000e+00
-4.818290e-03 0.000000e+00
-4.568294e-03 0.000000e+00
-4.318282e-03 0.000000e+00
-4.068285e-03 0.000000e+00
-3.818288e-03 0.000000e+00
-3.568292e-03 0.000000e+00
-3.318280e-03 0.000000e+00
-3.068283e-03 0.000000e+00
-2.818286e-03 0.000000e+00
-2.568290e-03 0.000000e+00
-2.318293e-03 0.000000e+00
-2.068281e-03 0.000000e+00
-1.818284e-03 0.000000e+00
-1.568288e-03 0.000000e+00
-1.318291e-03 0.000000e+00
-1.068294e-03 0.000000e+00
-8.182824e-04 0.000000e+00
-5.682856e-04 0.000000e+00
-3.182888e-04 0.000000e+00
-6.829202e-05 0.000000e+00
1.817197e-04 0.000000e+00
4.317164e-04 0.000000e+00
6.817132e-04 0.000000e+00
9.317100e-04 0.000000e+00
1.181707e-03 0.000000e+00
1.431718e-03 0.000000e+00
1.681715e-03 0.000000e+00
1.931712e-03 0.000000e+00
2.181709e-03 0.000000e+00
2.431706e-03 0.000000e+00
2.681717e-03 0.000000e+00
2.931714e-03 0.000000e+00
3.181711e-03 0.000000e+00
3.431708e-03 0.000000e+00
3.681719e-03 0.000000e+00
3.931716e-03 0.000000e+00
4.181713e-03 0.000000e+00
4.431710e-03 0.000000e+00
4.681706e-03 0.000000e+00
4.931718e-03 0.000000e+00
5.181715e-03 0.000000e+00
5.431712e-03 0.000000e+00
5.681708e-03 0.000000e+00
5.931720e-03 0.000000e+00
6.181717e-03 0.000000e+00
6.431714e-03 0.000000e+00
6.681710e-03 0.000000e+00
6.931707e-03 0.000000e+00
7.181719e-03 0.000000e+00
7.431716e-03 0.000000e+00
7.681713e-03 0.000000e+00
7.931709e-03 0.000000e+00
8.181706e-03 0.000000e+00
8.431718e-03 0.000000e+00
8.681715e-03 0.000000e+00
8.931711e-03 0.000000e+00
9.181708e-03 0.000000e+00
9.431720e-03 0.000000e+00
9.681717e-03 0.000000e+00
9.931713e-03 0.000000e+00
1.018171e-02 0.000000e+00
1.043171e-02 0.000000e+00
1.068172e-02 0.000000e+00
1.093172e-02 0.000000e+00
1.118171e-02 0.000000e+00
1.143171e-02 0.000000e+00
1.168172e-02 0.000000e+00
1.193172e-02 0.000000e+00
1.218171e-02 0.000000e+00
1.243171e-02 0.000000e+00
1.268171e-02 0.000000e+00
1.293172e-02 0.000000e+00
1.318172e-02 0.000000e+00
1.343171e-02 0.000000e+00
1.368171e-02 0.000000e+00
1.393171e-02 0.000000e+00
1.418172e-02 0.000000e+00
1.443172e-02 0.000000e+00
1.468171e-02 0.000000e+00
1.493171e-02 0.000000e+00
1.518172e-02 0.000000e+00
1.543172e-02 0.000000e+00
1.568171e-02 0.000000e+00
1.593171e-02 0.000000e+00
1.618171e-02 0.000000e+00
1.643172e-02 0.000000e+00
1.668172e-02 0.000000e+00
1.693171e-02 0.000000e+00
1.718171e-02 0.000000e+00
1.743171e-02 0.000000e+00
1.768172e-02 0.000000e+00
1.793171e-02 0.000000e+00
1.818171e-02 0.000000e+00
1.843171e-02 0.000000e+00
1.868172e-02 0.000000e+00
1.893172e-02 0.000000e+00
1.918171e-02 0.000000e+00
1.943171e-02 0.000000e+00
1.968171e-02 0.000000e+00
1.993172e-02 0.000000e+00
2.018172e-02 0.000000e+00
2.043171e-02 0.000000e+00
2.068171e-02 0.000000e+00
2.093172e-02 0.000000e+00
2.118172e-02 0.000000e+00
2.143171e-02 0.000000e+00
2.168171e-02 0.000000e+00
2.193171e-02 0.000000e+00
2.218172e-02 0.000000e+00
2.243172e-02 0.000000e+00
2.268171e-02 0.000000e+00
2.293171e-02 0.000000e+00
2.318171e-02 0.000000e+00
2.343172e-02 0.000000e+00
2.368172e-02 0.000000e+00
2.393171e-02 0.000000e+00
2.418171e-02 0.000000e+00
2.443172e-02 0.000000e+00
2.468172e-02 0.000000e+00
2.493171e-02 0.000000e+00
2.518171e-02 0.000000e+00
2.543171e-02 0.000000e+00
2.568172e-02 0.000000e+00
2.593172e-02 0.000000e+00
2.618171e-02 0.000000e+00
2.643171e-02 0.000000e+00
2.668172e-02 0.000000e+00
2.693172e-02 0.000000e+00
2.718171e-02 0.000000e+00
2.743171e-02 0.000000e+00
2.768171e-02 0.000000e+00
2.793172e-02 0.000000e+00
2.818172e-02 0.000000e+00
2.843171e-02 0.000000e+00
2.868171e-02 0.000000e+00
2.893171e-02 0.000000e+00
2.918172e-02 0.000000e+00
2.943172e-02 0.000000e+00
2.968171e-02 0.000000e+00
2.993171e-02 0.000000e+00
3.018172e-02 0.000000e+00
3.043172e-02 0.000000e+00
3.068171e-02 0.000000e+00
3.093171e-02 0.000000e+00
3.118171e-02 0.000000e+00
3.143172e-02 0.000000e+00
3.168172e-02 0.000000e+00
3.193171e-02 0.000000e+00
3.218171e-02 0.000000e+00
3.243172e-02 0.000000e+00
3.268172e-02 0.000000e+00
3.293172e-02 0.000000e+00
3.318171e-02 0.000000e+00
3.343171e-02 0.000000e+00
3.368172e-02 0.000000e+00
3.393172e-02 0.000000e+00
3.418171e-02 0.000000e+00
3.443171e-02 0.000000e+00
3.468171e-02 0.000000e+00
3.493172e-02 0.000000e+00
3.518172e-02 0.000000e+00
3.543171e-02 0.000000e+00
3.568171e-02 0.000000e+00
3.593172e-02 0.000000e+00
3.618172e-02 0.000000e+00
3.643171e-02 0.000000e+00
3.668171e-02 0.000000e+00
3.693171e-02 0.000000e+00
3.718172e-02 0.000000e+00
3.743172e-02 0.000000e+00
3.768171e-02 0.000000e+00
3.793171e-02 0.000000e+00
3.818171e-02 0.000000e+00
3.843172e-02 0.000000e+00
3.868172e-02 0.000000e+00
3.893171e-02 0.000000e+00
3.918171e-02 0.000000e+00
3.943172e-02 0.000000e+00
3.968172e-02 0.000000e+00
3.993171e-02 0.000000e+00
4.018171e-02 0.000000e+00
4.043171e-02 0.000000e+00
4.068172e-02 0.000000e+00
4.093172e-02 0.000000e+00
4.118171e-02 0.000000e+00
4.143171e-02 0.000000e+00
4.168172e-02 0.000000e+00
4.193172e-02 0.000000e+00
4.218172e-02 0.000000e+00
4.243171e-02 0.000000e+00
4.268171e-02 0.000000e+00
4.293172e-02 0.000000e+00
4.318172e-02 0.000000e+00
4.343171e-02 0.000000e+00
4.368171e-02 0.000000e+00
4.393171e-02 0.000000e+00
4.418172e-02 0.000000e+00
4.443172e-02 0.000000e+00
4.468171e-02 0.000000e+00
4.493171e-02 0.000000e+00
4.518172e-02 0.000000e+00
4.543172e-02 0.000000e+00
4.568172e-02 0.000000e+00
4.593171e-02 0.000000e+00
4.618171e-02 0.000000e+00
4.643172e-02 0.000000e+00
4.668172e-02 0.000000e+00
4.693171e-02 -1.401298e-45
4.718171e-02 -1.401298e-45
4.743172e-02 -1.401298e-45
4.768172e-02 2.802597e-45
4.793172e-02 5.605194e-45
4.818171e-02 8.407791e-45
4.843171e-02 8.407791e-45
4.868172e-02 2.802597e-45
4.893172e-02 -5.605194e-45
4.918171e-02 -1.681558e-44
4.943171e-02 -2.242078e-44
4.968171e-02 -1.961818e-44
4.993172e-02 -8.407791e-45
5.018172e-02 1.121039e-44
5.043171e-02 3.643376e-44
5.068171e-02 5.605194e-44
5.093172e-02 6.445973e-44
5.118172e-02 4.624285e-44
5.143172e-02 5.605194e-45
5.168171e-02 -5.324934e-44
5.193171e-02 -1.149065e-43
5.218172e-02 -1.513402e-43
5.243172e-02 -1.457350e-43
5.268171e-02 -8.407791e-44
5.293171e-02 3.222986e-44
5.318171e-02 1.765636e-43
5.343172e-02 3.054831e-43
5.368172e-02 3.671402e-43
5.393171e-02 3.138909e-43
5.418171e-02 1.233143e-43
5.443172e-02 -1.765636e-43
5.468172e-02 -5.156778e-43
5.493172e-02 -7.819245e-43
5.518171e-02 -8.519895e-43
5.543171e-02 -6.277817e-43
5.568172e-02 -9.668959e-44
5.593172e-02 6.530051e-43
5.618171e-02 1.418114e-42
5.643171e-02 1.923983e-42
5.668172e-02 1.893154e-42
5.693172e-02 1.156071e-42
5.718172e-02 -2.578389e-43
5.743171e-02 -2.054304e-42
5.768171e-02 -3.702231e-42
5.793172e-02 -4.544411e-42
5.818172e-02 -4.004911e-42
5.843171e-02 -1.816083e-42
5.868171e-02 1.771241e-42
5.893171e-02 5.902269e-42
5.918172e-02 9.245767e-42
5.943172e-02 1.031075e-41
5.968171e-02 7.957974e-42
5.993171e-02 1.918378e-42
6.018172e-02 -6.810311e-42
6.043172e-02 -1.591875e-41
6.068172e-02 -2.220217e-41
6.093171e-02 -2.243899e-41
6.118171e-02 -1.457070e-41
6.143172e-02 1.171486e-42
6.168172e-02 2.159961e-41
6.193171e-02 4.078059e-41
6.218171e-02 5.131835e-41
6.243172e-02 4.657916e-41
6.268172e-02 2.337786e-41
6.293172e-02 -1.577582e-41
6.318171e-02 -6.174121e-41
6.343171e-02 -9.997424e-41
6.368172e-02 -1.141021e-40
6.393172e-02 -9.130861e-41
6.418172e-02 -2.814508e-41
6.443171e-02 6.525006e-41
6.468171e-02 1.645335e-40
6.493172e-02 2.355274e-40
6.518172e-02 2.435653e-40
6.543171e-02 1.659362e-40
6.568171e-02 3.906820e-42
6.593172e-02 -2.102340e-40
6.618172e-02 -4.151991e-40
6.643172e-02 -5.339185e-40
6.668171e-02 -4.965978e-40
6.693171e-02 -2.683122e-40
6.718172e-02 1.275266e-40
6.743172e-02 5.996044e-40
6.768171e-02 1.000838e-39
6.793171e-02 1.164493e-39
6.818172e-02 9.585260e-40
6.843172e-02 3.440118e-40
6.868172e-02 -5.822479e-40
6.893171e-02 -1.581298e-39
6.918171e-02 -2.315116e-39
6.943172e-02 -2.438639e-39
6.968172e-02 -1.722330e-39
6.993172e-02 -1.700560e-40
7.018171e-02 1.911772e-39
7.043171e-02 3.933526e-39
7.068172e-02 5.149860e-39
7.093172e-02 4.881738e-39
7.118171e-02 2.781104e-39
7.143171e-02 -9.447134e-40
7.168172e-02 -5.441917e-39
7.193172e-02 -9.325187e-39
7.218172e-02 -1.101836e-38
7.243171e-02 -9.265018e-39
7.268171e-02 -3.675026e-39
7.293172e-02 4.879285e-39
7.318172e-02 1.420459e-38
7.343172e-02 2.118613e-38
7.368171e-02 2.263600e-38
7.393171e-02 1.641641e-38
7.418172e-02 2.513952e-39
7.443172e-02 -1.633592e-38
7.468171e-02 -3.482974e-38
7.493171e-02 -4.625163e-38
7.518172e-02 -4.447089e-38
7.543172e-02 -2.630794e-38
7.568172e-02 6.474756e-39
7.593171e-02 4.637977e-38
7.618171e-02 8.120915e-38
7.643172e-02 9.707997e-38
7.668172e-02 8.290748e-38
7.693172e-02 3.516811e-38
7.718171e-02 -3.868449e-38
7.743172e-02 -1.197583e-37
7.768172e-02 -1.812218e-37
7.793172e-02 -1.956342e-37
7.818171e-02 -1.445679e-37
7.843171e-02 -2.772875e-38
7.868172e-02 1.318298e-37
7.893172e-02 2.893623e-37
7.918172e-02 3.882943e-37
7.943171e-02 3.770705e-37
7.968171e-02 2.289230e-37
7.993172e-02 -4.168167e-38
8.018172e-02 -3.727145e-37
8.043171e-02 -6.634457e-37
8.068171e-02 -7.995511e-37
8.093172e-02 -6.900111e-37
8.118172e-02 -3.059067e-37
8.143172e-02 2.921869e-37
8.168171e-02 9.511084e-37
8.193171e-02 1.454098e-36
8.218172e-02 1.580342e-36
8.243172e-02 1.182247e-36
8.268172e-02 2.577950e-37
8.293171e-02 -1.009100e-36
8.318172e-02 -2.263276e-36
8.343172e-02 -3.057794e-36
8.368172e-02 -2.987484e-36
8.393171e-02 -1.843788e-36
8.418171e-02 2.583557e-37
8.443172e-02 2.834158e-36
8.468172e-02 5.101245e-36
8.493172e-02 6.176743e-36
8.518171e-02 5.362709e-36
8.543171e-02 2.442341e-36
8.568172e-02 -2.115175e-36
8.593172e-02 -7.138045e-36
8.618172e-02 -1.097939e-35
8.643171e-02 -1.197310e-35
8.668172e-02 -9.017072e-36
8.693172e-02 -2.111069e-36
8.718172e-02 7.352990e-36
8.743171e-02 1.671617e-35
8.768171e-02 2.265789e-35
8.793172e-02 2.219348e-35
8.818172e-02 1.381398e-35
8.843172e-02 -1.597264e-36
8.868171e-02 -2.045303e-35
8.893172e-02 -3.702306e-35
8.918172e-02 -4.489576e-35
8.943172e-02 -3.905851e-35
8.968171e-02 -1.802275e-35
8.993171e-02 1.474390e-35
9.018172e-02 5.076180e-35
9.043172e-02 7.823320e-35
9.068172e-02 8.533808e-35
9.093171e-02 6.438150e-35
9.118171e-02 1.554960e-35
9.143172e-02 -5.114721e-35
9.168172e-02 -1.168897e-34
9.193172e-02 -1.584179e-34
9.218171e-02 -1.550673e-34
9.243172e-02 -9.667276e-35
9.268172e-02 1.021660e-35
9.293172e-02 1.404222e-34
9.318171e-02 2.542758e-34
9.343171e-02 3.078812e-34
9.368172e-02 2.674303e-34
9.393172e-02 1.235637e-34
9.418172e-02 -9.925113e-35
9.443171e-02 -3.428584e-34
9.468171e-02 -5.273855e-34
9.493172e-02 -5.737932e-34
9.518172e-02 -4.317203e-34
9.543172e-02 -1.041790e-34
9.568171e-02 3.403294e-34
9.593172e-02 7.756212e-34
9.618172e-02 1.047729e-33
9.643172e-02 1.021855e-33
9.668171e-02 6.341195e-34
9.693171e-02 -6.880159e-35
9.718172e-02 -9.189992e-34
9.743172e-02 -1.656382e-33
9.768172e-02 -1.996980e-33
9.793171e-02 -1.726155e-33
9.818172e-02 -7.902109e-34
9.843172e-02 6.460064e-34
9.868172e-02 2.203815e-33
9.893171e-02 3.371101e-33
9.918171e-02 3.648569e-33
9.943172e-02 2.726621e-33
9.968172e-02 6.385251e-34
9.993172e-02 -2.169218e-33
1.001817e-01 -4.893613e-33
1.004317e-01 -6.569518e-33
1.006817e-01 -6.366653e-33
1.009317e-01 -3.910166e-33
1.011817e-01 4.812767e-34
1.014317e-01 5.742284e-33
1.016817e-01 1.025459e-32
1.019317e-01 1.227876e-32
1.021817e-01 1.052949e-32
1.024317e-01 4.728217e-33
1.026817e-01 -4.064499e-33
1.029317e-01 -1.350383e-32
1.031817e-01 -2.047418e-32
1.034317e-01 -2.198980e-32
1.036817e-01 -1.625990e-32
1.039317e-01 -3.586358e-33
1.041817e-01 1.325612e-32
1.044317e-01 2.940936e-32
1.046817e-01 3.913317e-32
1.049317e-01 3.758919e-32
1.051817e-01 2.272282e-32
1.054317e-01 -3.387097e-33
1.056817e-01 -3.430051e-32
1.059317e-01 -6.044609e-32
1.061817e-01 -7.171590e-32
1.064317e-01 -6.083701e-32
1.066817e-01 -2.652966e-32
1.069317e-01 2.469019e-32
1.071817e-01 7.899517e-32
1.074317e-01 1.183679e-31
1.076817e-01 1.258755e-31
1.079317e-01 9.175862e-32
1.081817e-01 1.841282e-32
1.084317e-01 -7.770850e-32
1.086817e-01 -1.686185e-31
1.089317e-01 -2.218673e-31
1.091817e-01 -2.107327e-31
1.094317e-01 -1.247074e-31
1.096817e-01 2.327213e-32
1.099317e-01 1.960752e-31
1.101817e-01 3.398014e-31
1.104317e-01 3.986296e-31
1.106817e-01 3.336116e-31
1.109317e-01 1.397982e-31
1.111817e-01 -1.445732e-31
1.114317e-01 -4.417437e-31
1.116817e-01 -6.525095e-31
1.119317e-01 -6.856401e-31
1.121817e-01 -4.909848e-31
1.124317e-01 -8.567290e-32
1.126817e-01 4.371202e-31
1.129317e-01 9.236528e-31
1.131817e-01 1.199280e-30
1.134317e-01 1.123901e-30
1.136817e-01 6.475233e-31
1.139317e-01 -1.531211e-31
1.141817e-01 -1.073609e-30
1.144317e-01 -1.824496e-30
1.146817e-01 -2.112344e-30
1.149317e-01 -1.739498e-30
1.151817e-01 -6.923445e-31
1.154317e-01 8.147177e-31
1.156817e-01 2.364148e-30
1.159317e-01 3.435095e-30
1.161817e-01 3.559870e-30
1.164317e-01 2.495396e-30
1.166817e-01 3.539776e-31
1.169317e-01 -2.360045e-30
1.171817e-01 -4.840220e-30
1.174317e-01 -6.190316e-30
1.176817e-01 -5.712058e-30
1.179317e-01 -3.185491e-30
1.181817e-01 9.556276e-31
1.184317e-01 5.635435e-30
1.186817e-01 9.369687e-30
1.189317e-01 1.068787e-29
1.191817e-01 8.638501e-30
1.194317e-01 3.221841e-30
1.196817e-01 -4.412890e-30
1.199317e-01 -1.212221e-29
1.201817e-01 -1.729475e-29
1.204317e-01 -1.764597e-29
1.206817e-01 -1.206503e-29
1.209317e-01 -1.234788e-30
1.211817e-01 1.223316e-29
1.214317e-01 2.429418e-29
1.216817e-01 3.055668e-29
1.219317e-01 2.770816e-29
1.221817e-01 1.486389e-29
1.224317e-01 -5.638122e-30
1.226817e-01 -2.837941e-29
1.229317e-01 -4.608233e-29
1.231817e-01 -5.171206e-29
1.234317e-01 -4.092044e-29
1.236817e-01 -1.406744e-29
1.239317e-01 2.295409e-29
1.241817e-01 5.961191e-29
1.244317e-01 8.338666e-29
1.246817e-01 8.363161e-29
1.249317e-01 5.556682e-29
1.251817e-01 3.074240e-30
1.254317e-01 -6.089688e-29
1.256817e-01 -1.169276e-28
1.259317e-01 -1.444426e-28
1.261817e-01 -1.284698e-28
1.264317e-01 -6.583225e-29
1.266817e-01 3.144385e-29
1.269317e-01 1.372160e-28
1.271817e-01 2.173202e-28
1.274317e-01 2.395877e-28
1.276817e-01 1.851496e-28
1.279317e-01 5.743949e-29
1.281817e-01 -1.146128e-28
1.284317e-01 -2.814170e-28
1.286817e-01 -3.855083e-28
1.289317e-01 -3.794928e-28
1.291817e-01 -2.440600e-28
1.294317e-01 3.498314e-32
1.296817e-01 2.912523e-28
1.299317e-01 5.402336e-28
1.301817e-01 6.546942e-28
1.304317e-01 5.700995e-28
1.306817e-01 2.768348e-28
1.309317e-01 -1.660095e-28
1.311817e-01 -6.374773e-28
1.314317e-01 -9.838367e-28
1.316817e-01 -1.064315e-27
1.319317e-01 -8.011621e-28
1.321817e-01 -2.179179e-28
1.324317e-01 5.493219e-28
1.326817e-01 1.276566e-27
1.329317e-01 1.710974e-27
1.331817e-01 1.650818e-27
1.334317e-01 1.023239e-27
1.336817e-01 -6.689663e-29
1.339317e-01 -1.339008e-27
1.341817e-01 -2.398546e-27
1.344317e-01 -2.848796e-27
1.346817e-01 -2.424322e-27
1.349317e-01 -1.105005e-27
1.351817e-01 8.314745e-28
1.354317e-01 2.847881e-27
1.356817e-01 4.280361e-27
1.359317e-01 4.538733e-27
1.361817e-01 3.319026e-27
1.364317e-01 7.587683e-28
1.366817e-01 -2.527926e-27
1.369317e-01 -5.569454e-27
1.371817e-01 -7.298220e-27
1.374317e-01 -6.892468e-27
1.376817e-01 -4.097950e-27
1.379317e-01 5.827227e-28
1.381817e-01 5.921036e-27
1.384317e-01 1.024360e-26
1.386817e-01 1.191409e-26
1.389317e-01 9.890324e-27
1.391817e-01 4.182446e-27
1.394317e-01 -3.959979e-27
1.396817e-01 -1.224397e-26
1.399317e-01 -1.791549e-26
1.401817e-01 -1.860175e-26
1.404317e-01 -1.317693e-26
1.406817e-01 -2.364227e-27
1.409317e-01 1.117566e-26
1.411817e-01 2.339119e-26
1.414317e-01 2.995169e-26
1.416817e-01 2.765113e-26
1.419317e-01 1.568425e-26
1.421817e-01 -3.656511e-27