-1.388183e-01 0.000000e+00
-1.385683e-01 0.000000e+00
-1.383183e-01 0.000000e+00
-1.380683e-01 0.000000e+00
-1.378183e-01 0.000000e+00
-1.375683e-01 0.000000e+00
-1.373183e-01 0.000000e+00
-1.370683e-01 0.000000e+00
-1.368183e-01 0.000000e+00
-1.365683e-01 0.000000e+00
-1.363183e-01 0.000000e+00
-1.360683e-01 0.000000e+00
-1.358183e-01 0.000000e+00
-1.355683e-01 0.000000e+00
-1.353183e-01 0.000000e+00
-1.350683e-01 0.000000e+00
-1.348183e-01 0.000000e+00
-1.345683e-01 0.000000e+00
-1.343183e-01 0.000000e+00
-1.340683e-01 0.000000e+00
-1.338183e-01 0.000000e+00
-1.335683e-01 0.000000e+00
-1.333183e-01 0.000000e+00
-1.330683e-01 0.000000e+00
-1.328183e-01 0.000000e+00
-1.325683e-01 0.000000e+00
-1.323183e-01 0.000000e+00
-1.320683e-01 0.000000e+00
-1.318183e-01 0.000000e+00
-1.315683e-01 0.000000e+00
-1.313183e-01 0.000000e+00
-1.310683e-01 0.000000e+00
-1.308183e-01 0.000000e+00
-1.305683e-01 0.000000e+00
-1.303183e-01 0.000000e+00
-1.300683e-01 0.000000e+00
-1.298183e-01 0.000000e+00
-1.295683e-01 0.000000e+00
-1.293183e-01 0.000000e+00
-1.290683e-01 0.000000e+00
-1.288183e-01 0.000000e+00
-1.285683e-01 0.000000e+00
-1.283183e-01 0.000000e+00
-1.280683e-01 0.000000e+00
-1.278183e-01 0.000000e+00
-1.275683e-01 0.000000e+00
-1.273183e-01 0.000000e+00
-1.270683e-01 0.000000e+00
-1.268183e-01 0.000000e+00
-1.265683e-01 0.000000e+00
-1.263183e-01 0.000000e+00
-1.260683e-01 0.000000e+00
-1.258183e-01 0.000000e+00
-1.255683e-01 0.000000e+00
-1.253183e-01 0.000000e+00
-1.250683e-01 0.000000e+00
-1.248183e-01 0.000000e+00
-1.245683e-01 0.000000e+00
-1.243183e-01 0.000000e+00
-1.240683e-01 0.000000e+00
-1.238183e-01 0.000000e+00
-1.235683e-01 0.000000e+00
-1.233183e-01 0.000000e+00
-1.230683e-01 0.000000e+00
-1.228183e-01 0.000000e+00
-1.225683e-01 0.000000e+00
-1.223183e-01 0.000000e+00
-1.220683e-01 0.000000e+00
-1.218183e-01 0.000000e+00
-1.215683e-01 0.000000e+00
-1.213183e-01 0.000000e+00
-1.210683e-01 0.000000e+00
-1.208183e-01 0.000000e+00
-1.205683e-01 0.000000e+00
-1.203183e-01 0.000000e+00
-1.200683e-01 0.000000e+00
-1.198183e-01 0.000000e+00
-1.195683e-01 0.000000e+00
-1.193183e-01 0.000000e+00
-1.190683e-01 0.000000e+00
-1.188183e-01 0.000000e+00
-1.185683e-01 0.000000e+00
-1.183183e-01 0.000000e+00
-1.180683e-01 0.000000e+00
-1.178183e-01 0.000000e+00
-1.175683e-01 0.000000e+00
-1.173183e-01 0.000000e+00
-1.170683e-01 0.000000e+00
-1.168183e-01 0.000000e+00
-1.165683e-01 0.000000e+00
-1.163183e-01 0.000000e+00
-1.160683e-01 0.000000e+00
-1.158183e-01 0.000000e+00
-1.155683e-01 0.000000e+00
-1.153183e-01 0.000000e+00
-1.150683e-01 0.000000e+00
-1.148183e-01 0.000000e+00
-1.145683e-01 0.000000e+00
-1.143183e-01 0.000000e+00
-1.140683e-01 0.000000e+00
-1.138183e-01 0.000000e+00
-1.135683e-01 0.000000e+00
-1.133183e-01 0.000000e+00
-1.130683e-01 0.000000e+00
-1.128183e-01 0.000000e+00
-1.125683e-01 0.000000e+00
-1.123183e-01 0.000000e+00
-1.120683e-01 0.000000e+00
-1.118183e-01 0.000000e+00
-1.115683e-01 0.000000e+00
-1.113183e-01 0.000000e+00
-1.110683e-01 0.000000e+00
-1.108183e-01 0.000000e+00
-1.105683e-01 0.000000e+00
-1.103183e-01 0.000000e+00
-1.100683e-01 0.000000e+00
-1.098183e-01 0.000000e+00
-1.095683e-01 0.000000e+00
-1.093183e-01 0.000000e+00
-1.090683e-01 0.000000e+00
-1.088183e-01 0.000000e+00
-1.085683e-01 0.000000e+00
-1.083183e-01 0.000000e+00
-1.080683e-01 0.000000e+00
-1.078183e-01 0.000000e+00
-1.075683e-01 0.000000e+00
-1.073183e-01 0.000000e+00
-1.070683e-01 0.000000e+00
-1.068183e-01 0.000000e+00
-1.065683e-01 0.000000e+00
-1.063183e-01 0.000000e+00
-1.060683e-01 0.000000e+00
-1.058183e-01 0.000000e+00
-1.055683e-01 0.000000e+00
-1.053183e-01 0.000000e+00
-1.050683e-01 0.000000e+00
-1.048183e-01 0.000000e+00
-1.045683e-01 0.000000e+00
-1.043183e-01 0.000000e+00
-1.040683e-01 0.000000e+00
-1.038183e-01 0.000000e+00
-1.035683e-01 0.000000e+00
-1.033183e-01 0.000000e+00
-1.030683e-01 0.000000e+00
-1.028183e-01 0.000000e+00
-1.025683e-01 0.000000e+00
-1.023183e-01 0.000000e+00
-1.020683e-01 0.000000e+00
-1.018183e-01 0.000000e+00
-1.015683e-01 0.000000e+00
-1.013183e-01 0.000000e+00
-1.010683e-01 0.000000e+00
-1.008183e-01 0.000000e+00
-1.005683e-01 0.000000e+00
-1.003183e-01 0.000000e+00
-1.000683e-01 0.000000e+00
-9.981829e-02 0.000000e+00
-9.956829e-02 0.000000e+00
-9.931830e-02 0.000000e+00
-9.906829e-02 0.000000e+00
-9.881829e-02 0.000000e+00
-9.856829e-02 0.000000e+00
-9.831829e-02 0.000000e+00
-9.806830e-02 0.000000e+00
-9.781829e-02 0.000000e+00
-9.756829e-02 0.000000e+00
-9.731829e-02 0.000000e+00
-9.706829e-02 0.000000e+00
-9.681829e-02 0.000000e+00
-9.656829e-02 0.000000e+00
-9.631829e-02 0.000000e+00
-9.606829e-02 0.000000e+00
-9.581830e-02 0.000000e+00
-9.556829e-02 0.000000e+00
-9.531829e-02 0.000000e+00
-9.506829e-02 0.000000e+00
-9.481829e-02 0.000000e+00
-9.456830e-02 0.000000e+00
-9.431829e-02 0.000000e+00
-9.406829e-02 0.000000e+00
-9.381829e-02 0.000000e+00
-9.356830e-02 0.000000e+00
-9.331829e-02 0.000000e+00
-9.306829e-02 0.000000e+00
-9.281829e-02 0.000000e+00
-9.256829e-02 0.000000e+00
-9.231830e-02 0.000000e+00
-9.206829e-02 0.000000e+00
-9.181829e-02 0.000000e+00
-9.156829e-02 0.000000e+00
-9.131829e-02 0.000000e+00
-9.106829e-02 0.000000e+00
-9.081829e-02 0.000000e+00
-9.056829e-02 0.000000e+00
-9.031829e-02 0.000000e+00
-9.006830e-02 0.000000e+00
-8.981829e-02 0.000000e+00
-8.956829e-02 0.000000e+00
-8.931829e-02 0.000000e+00
-8.906829e-02 0.000000e+00
-8.881830e-02 0.000000e+00
-8.856829e-02 0.000000e+00
-8.831829e-02 0.000000e+00
-8.806829e-02 0.000000e+00
-8.781829e-02 0.000000e+00
-8.756829e-02 0.000000e+00
-8.731829e-02 0.000000e+00
-8.706829e-02 0.000000e+00
-8.681829e-02 0.000000e+00
-8.656830e-02 0.000000e+00
-8.631829e-02 0.000000e+00
-8.606829e-02 0.000000e+00
-8.581829e-02 0.000000e+00
-8.556829e-02 0.000000e+00
-8.531829e-02 0.000000e+00
-8.506829e-02 0.000000e+00
-8.481829e-02 0.000000e+00
-8.456829e-02 0.000000e+00
-8.431830e-02 0.000000e+00
-8.406829e-02 0.000000e+00
-8.381829e-02 0.000000e+00
-8.356829e-02 0.000000e+00
-8.331829e-02 0.000000e+00
-8.306830e-02 0.000000e+00
-8.281829e-02 0.000000e+00
-8.256829e-02 0.000000e+00
-8.231829e-02 0.000000e+00
-8.206829e-02 0.000000e+00
-8.181829e-02 0.000000e+00
-8.156829e-02 0.000000e+00
-8.131829e-02 0.000000e+00
-8.106829e-02 0.000000e+00
-8.081830e-02 0.000000e+00
-8.056829e-02 0.000000e+00
-8.031829e-02 0.000000e+00
-8.006829e-02 0.000000e+00
-7.981829e-02 0.000000e+00
-7.956829e-02 0.000000e+00
-7.931829e-02 0.000000e+00
-7.906829e-02 0.000000e+00
-7.881829e-02 0.000000e+00
-7.856829e-02 0.000000e+00
-7.831829e-02 0.000000e+00
-7.806829e-02 0.000000e+00
-7.781829e-02 0.000000e+00
-7.756829e-02 0.000000e+00
-7.731830e-02 0.000000e+00
-7.706829e-02 0.000000e+00
-7.681829e-02 0.000000e+00
-7.656829e-02 0.000000e+00
-7.631829e-02 0.000000e+00
-7.606829e-02 0.000000e+00
-7.581829e-02 0.000000e+00
-7.556829e-02 0.000000e+00
-7.531829e-02 0.000000e+00
-7.506829e-02 0.000000e+00
-7.481829e-02 0.000000e+00
-7.456829e-02 0.000000e+00
-7.431829e-02 0.000000e+00
-7.406829e-02 0.000000e+00
-7.381829e-02 0.000000e+00
-7.356829e-02 0.000000e+00
-7.331829e-02 0.000000e+00
-7.306829e-02 0.000000e+00
-7.281829e-02 0.000000e+00
-7.256829e-02 0.000000e+00
-7.231829e-02 0.000000e+00
-7.206829e-02 0.000000e+00
-7.181829e-02 0.000000e+00
-7.156829e-02 0.000000e+00
-7.131829e-02 0.000000e+00
-7.106829e-02 0.000000e+00
-7.081829e-02 0.000000e+00
-7.056829e-02 0.000000e+00
-7.031829e-02 0.000000e+00
-7.006829e-02 0.000000e+00
-6.981829e-02 0.000000e+00
-6.956829e-02 0.000000e+00
-6.931829e-02 0.000000e+00
-6.906829e-02 0.000000e+00
-6.881829e-02 0.000000e+00
-6.856829e-02 0.000000e+00
-6.831829e-02 0.000000e+00
-6.806829e-02 0.000000e+00
-6.781829e-02 0.000000e+00
-6.756829e-02 0.000000e+00
-6.731829e-02 0.000000e+00
-6.706829e-02 0.000000e+00
-6.681829e-02 0.000000e+00
-6.656829e-02 0.000000e+00
-6.631829e-02 0.000000e+00
-6.606829e-02 0.000000e+00
-6.581829e-02 0.000000e+00
-6.556829e-02 0.000000e+00
-6.531829e-02 0.000000e+00
-6.506829e-02 0.000000e+00
-6.481829e-02 0.000000e+00
-6.456829e-02 0.000000e+00
-6.431829e-02 0.000000e+00
-6.406829e-02 0.000000e+00
-6.381829e-02 0.000000e+00
-6.356829e-02 0.000000e+00
-6.331829e-02 0.000000e+00
-6.306829e-02 0.000000e+00
-6.281829e-02 0.000000e+00
-6.256829e-02 0.000000e+00
-6.231829e-02 0.000000e+00
-6.206829e-02 0.000000e+00
-6.181829e-02 0.000000e+00
-6.156829e-02 0.000000e+00
-6.131829e-02 0.000000e+00
-6.106829e-02 0.000000e+00
-6.081829e-02 0.000000e+00
-6.056829e-02 0.000000e+00
-6.031829e-02 0.000000e+00
-6.006829e-02 0.000000e+00
-5.981829e-02 0.000000e+00
-5.956829e-02 0.000000e+00
-5.931829e-02 0.000000e+00
-5.906829e-02 0.000000e+00
-5.881829e-02 0.000000e+00
-5.856829e-02 0.000000e+00
-5.831829e-02 0.000000e+00
-5.806829e-02 0.000000e+00
-5.781829e-02 0.000000e+00
-5.756829e-02 0.000000e+00
-5.731829e-02 0.000000e+00
-5.706829e-02 0.000000e+00
-5.681829e-02 0.000000e+00
-5.656829e-02 0.000000e+00
-5.631829e-02 0.000000e+00
-5.606829e-02 0.000000e+00
-5.581829e-02 0.000000e+00
-5.556829e-02 0.000000e+00
-5.531829e-02 0.000000e+00
-5.506829e-02 0.000000e+00
-5.481829e-02 0.000000e+00
-5.456829e-02 0.000000e+00
-5.431829e-02 0.000000e+00
-5.406829e-02 0.000000e+00
-5.381829e-02 0.000000e+00
-5.356829e-02 0.000000e+00
-5.331829e-02 0.000000e+00
-5.306829e-02 0.000000e+00
-5.281829e-02 0.000000e+00
-5.256829e-02 0.000000e+00
-5.231829e-02 0.000000e+00
-5.206829e-02 0.000000e+00
-5.181829e-02 0.000000e+00
-5.156829e-02 0.000000e+00
-5.131829e-02 0.000000e+00
-5.106829e-02 0.000000e+00
-5.081829e-02 0.000000e+00
-5.056829e-02 0.000000e+00
-5.031829e-02 0.000000e+00
-5.006829e-02 0.000000e+00
-4.981829e-02 0.000000e+00
-4.956829e-02 0.000000e+00
-4.931829e-02 0.000000e+00
-4.906829e-02 0.000000e+00
-4.881829e-02 0.000000e+00
-4.856829e-02 0.000000e+00
-4.831829e-02 0.000000e+00
-4.806829e-02 0.000000e+00
-4.781829e-02 0.000000e+00
-4.756829e-02 0.000000e+00
-4.731829e-02 0.000000e+00
-4.706829e-02 0.000000e+00
-4.681829e-02 0.000000e+00
-4.656829e-02 0.000000e+00
-4.631829e-02 0.000000e+00
-4.606829e-02 0.000000e+00
-4.581829e-02 0.000000e+00
-4.556829e-02 0.000000e+00
-4.531829e-02 0.000000e+00
-4.506829e-02 0.000000e+00
-4.481829e-02 0.000000e+00
-4.456829e-02 0.000000e+00
-4.431829e-02 0.000000e+00
-4.406829e-02 0.000000e+00
-4.381829e-02 0.000000e+00
-4.356829e-02 0.000000e+00
-4.331829e-02 0.000000e+00
-4.306829e-02 0.000000e+00
-4.281829e-02 0.000000e+00
-4.256829e-02 0.000000e+00
-4.231829e-02 0.000000e+00
-4.206829e-02 0.000000e+00
-4.181829e-02 0.000000e+00
-4.156829e-02 0.000000e+00
-4.131829e-02 0.000000e+00
-4.106829e-02 0.000000e+00
-4.081829e-02 0.000000e+00
-4.056829e-02 0.000000e+00
-4.031829e-02 0.000000e+00
-4.006829e-02 0.000000e+00
-3.981829e-02 0.000000e+00
-3.956829e-02 0.000000e+00
-3.931829e-02 0.000000e+00
-3.906829e-02 0.000000e+00
-3.881829e-02 0.000000e+00
-3.856829e-02 0.000000e+00
-3.831829e-02 0.000000e+00
-3.806829e-02 0.000000e+00
-3.781829e-02 0.000000e+00
-3.756829e-02 0.000000e+00
-3.731829e-02 0.000000e+00
-3.706829e-02 0.000000e+00
-3.681829e-02 0.000000e+00
-3.656829e-02 0.000000e+00
-3.631829e-02 0.000000e+00
-3.606829e-02 0.000000e+00
-3.581829e-02 0.000000e+00
-3.556829e-02 0.000000e+00
-3.531829e-02 0.000000e+00
-3.506829e-02 0.000000e+00
-3.481829e-02 0.000000e+00
-3.456829e-02 0.000000e+00
-3.431829e-02 0.000000e+00
-3.406829e-02 0.000000e+00
-3.381829e-02 0.000000e+00
-3.356829e-02 0.000000e+00
-3.331829e-02 0.000000e+00
-3.306829e-02 0.000000e+00
-3.281829e-02 0.000000e+00
-3.256829e-02 0.000000e+00
-3.231829e-02 0.000000e+00
-3.206829e-02 0.000000e+00
-3.181829e-02 0.000000e+00
-3.156829e-02 0.000000e+00
-3.131829e-02 0.000000e+00
-3.106829e-02 0.000000e+00
-3.081829e-02 0.000000e+00
-3.056829e-02 0.000000e+00
-3.031829e-02 0.000000e+00
-3.006829e-02 0.000000e+00
-2.981829e-02 0.000000e+00
-2.956829e-02 0.000000e+00
-2.931829e-02 0.000000e+00
-2.906829e-02 0.000000e+00
-2.881829e-02 0.000000e+00
-2.856829e-02 0.000000e+00
-2.831829e-02 0.000000e+00
-2.806829e-02 0.000000e+00
-2.781828e-02 0.000000e+00
-2.756829e-02 0.000000e+00
-2.731829e-02 0.000000e+00
-2.706829e-02 0.000000e+00
-2.681829e-02 0.000000e+00
-2.656829e-02 0.000000e+00
-2.631829e-02 0.000000e+00
-2.606829e-02 0.000000e+00
-2.581829e-02 0.000000e+00
-2.556829e-02 0.000000e+00
-2.531829e-02 0.000000e+00
-2.506829e-02 0.000000e+00
-2.481829e-02 0.000000e+00
-2.456829e-02 0.000000e+00
-2.431829e-02 0.000000e+00
-2.406829e-02 0.000000e+00
-2.381829e-02 0.000000e+00
-2.356829e-02 0.000000e+00
-2.331829e-02 0.000000e+00
-2.306829e-02 0.000000e+00
-2.281829e-02 0.000000e+00
-2.256829e-02 0.000000e+00
-2.231829e-02 0.000000e+00
-2.206829e-02 0.000000e+00
-2.181829e-02 0.000000e+00
-2.156829e-02 0.000000e+00
-2.131829e-02 0.000000e+00
-2.106829e-02 0.000000e+00
-2.081829e-02 0.000000e+00
-2.056829e-02 0.000000e+00
-2.031828e-02 0.000000e+00
-2.006829e-02 0.000000e+00
-1.981829e-02 0.000000e+00
-1.956829e-02 0.000000e+00
-1.931829e-02 0.000000e+00
-1.906829e-02 0.000000e+00
-1.881829e-02 0.000000e+00
-1.856828e-02 0.000000e+00
-1.831829e-02 0.000000e+00
-1.806829e-02 0.000000e+00
-1.781829e-02 0.000000e+00
-1.756829e-02 0.000000e+00
-1.731829e-02 0.000000e+00
-1.706829e-02 0.000000e+00
-1.681828e-02 0.000000e+00
-1.656829e-02 0.000000e+00
-1.631829e-02 0.000000e+00
-1.606829e-02 0.000000e+00
-1.581829e-02 0.000000e+00
-1.556829e-02 0.000000e+00
-1.531829e-02 0.000000e+00
-1.506829e-02 0.000000e+00
-1.481829e-02 0.000000e+00
-1.456829e-02 0.000000e+00
-1.431829e-02 0.000000e+00
-1.406829e-02 0.000000e+00
-1.381829e-02 0.000000e+00
-1.356828e-02 0.000000e+00
-1.331829e-02 0.000000e+00
-1.306829e-02 0.000000e+00
-1.281829e-02 0.000000e+00
-1.256830e-02 0.000000e+00
-1.231828e-02 0.000000e+00
-1.206829e-02 0.000000e+00
-1.181829e-02 0.000000e+00
-1.156829e-02 0.000000e+00
-1.131828e-02 0.000000e+00
-1.106828e-02 0.000000e+00
-1.081829e-02 0.000000e+00
-1.056829e-02 0.000000e+00
-1.031829e-02 0.000000e+00
-1.006828e-02 0.000000e+00
-9.818286e-03 0.000000e+00
-9.568289e-03 0.000000e+00
-9.318292e-03 0.000000e+00
-9.068280e-03 0.000000e+00
-8.818284e-03 0.000000e+00
-8.568287e-03 1.401298e-45
-8.318290e-03 1.401298e-45
-8.068293e-03 0.000000e+00
-7.818282e-03 2.802597e-45
-7.568285e-03 -8.407791e-45
-7.318288e-03 -5.605194e-45
-7.068291e-03 -9.809089e-45
-6.818295e-03 -5.605194e-45
-6.568283e-03 -5.605194e-45
-6.318286e-03 0.000000e+00
-6.068289e-03 4.203895e-45
-5.818292e-03 2.101948e-44
-5.568281e-03 2.802597e-44
-5.318284e-03 2.382207e-44
-5.068287e-03 9.809089e-45
-4.818290e-03 -7.006492e-45
-4.568294e-03 -3.222986e-44
-4.318282e-03 -5.745324e-44
-4.068285e-03 -6.866362e-44
-3.818288e-03 -5.745324e-44
-3.568292e-03 -1.821688e-44
-3.318280e-03 4.203895e-44
-3.068283e-03 1.121039e-43
-2.818286e-03 1.723597e-43
-2.568290e-03 1.877740e-43
-2.318293e-03 1.373272e-43
-2.068281e-03 1.681558e-44
-1.818284e-03 -1.541428e-43
-1.568288e-03 -3.475220e-43
-1.318291e-03 -4.764415e-43
-1.068294e-03 -4.806454e-43
-8.182824e-04 -3.040818e-43
-5.682856e-04 4.764415e-44
-3.182888e-04 5.268882e-43
-6.829202e-05 9.893167e-43
1.817197e-04 1.270978e-42
4.317164e-04 1.189702e-42
6.817132e-04 6.277817e-43
9.317100e-04 -3.867584e-43
1.181707e-03 -1.636717e-42
1.431718e-03 -2.767564e-42
1.681715e-03 -3.297255e-42
1.931712e-03 -2.801196e-42
2.181709e-03 -1.080401e-42
2.431706e-03 1.692769e-42
2.681717e-03 4.901742e-42
2.931714e-03 7.498348e-42
3.181711e-03 8.301292e-42
3.431708e-03 6.335270e-42
3.681719e-03 1.294800e-42
3.931716e-03 -6.097050e-42
4.181713e-03 -1.398776e-41
4.431710e-03 -1.963780e-41
4.681706e-03 -2.013246e-41
4.931718e-03 -1.339922e-41
5.181715e-03 7.328791e-43
5.431712e-03 1.976531e-41
5.681708e-03 3.846564e-41
5.931720e-03 4.982877e-41
6.181717e-03 4.702618e-41
6.431714e-03 2.595905e-41
6.681710e-03 -1.219830e-41
6.931707e-03 -5.958601e-41
7.181719e-03 -1.021154e-40
7.431716e-03 -1.224553e-40
7.681713e-03 -1.052669e-40
7.931709e-03 -4.352994e-41
8.181706e-03 5.590901e-41
8.431718e-03 1.699831e-40
8.681715e-03 2.621479e-40
8.931711e-03 2.910623e-40
9.181708e-03 2.240760e-40
9.431720e-03 5.223060e-41
9.681717e-03 -1.982389e-40
9.931713e-03 -4.632945e-40
1.018171e-02 -6.514735e-40
1.043171e-02 -6.678392e-40
1.068172e-02 -4.474935e-40
1.093172e-02 1.045229e-41
1.118171e-02 6.207108e-40
1.143171e-02 1.213552e-39
1.168172e-02 1.567976e-39
1.193172e-02 1.474865e-39
1.218171e-02 8.171308e-40
1.243171e-02 -3.567720e-40
1.268171e-02 -1.794944e-39
1.293172e-02 -3.065399e-39
1.318172e-02 -3.652961e-39
1.343171e-02 -3.118471e-39
1.368171e-02 -1.283323e-39
1.393171e-02 1.619661e-39
1.418172e-02 4.894895e-39
1.443172e-02 7.483773e-39
1.468171e-02 8.228715e-39
1.493171e-02 6.259456e-39
1.518172e-02 1.401300e-39
1.543172e-02 -5.535709e-39
1.568171e-02 -1.273007e-38
1.593171e-02 -1.767926e-38
1.618171e-02 -1.788312e-38
1.643172e-02 -1.174561e-38
1.668172e-02 5.603372e-40
1.693171e-02 1.658957e-38
1.718171e-02 3.178104e-38
1.743171e-02 4.042643e-38
1.768172e-02 3.735885e-38
1.793171e-02 1.998021e-38
1.818171e-02 -9.994840e-39
1.843171e-02 -4.580159e-38
1.868172e-02 -7.646854e-38
1.893172e-02 -8.943818e-38
1.918171e-02 -7.457279e-38
1.943171e-02 -2.854057e-38
1.968171e-02 4.188389e-38
1.993172e-02 1.191200e-37
2.018172e-02 1.777443e-37
2.043171e-02 1.911665e-37
2.068171e-02 1.407761e-37
2.093172e-02 2.502968e-38
2.118172e-02 -1.347975e-37
2.143171e-02 -2.952693e-37
2.168171e-02 -3.995574e-37
2.193171e-02 -3.936703e-37
2.218172e-02 -2.465302e-37
2.243172e-02 3.205898e-38
2.268171e-02 3.826450e-37
2.293171e-02 7.024357e-37
2.318171e-02 8.689476e-37
2.343172e-02 7.776809e-37
2.368172e-02 3.845939e-37
2.393171e-02 -2.603595e-37
2.418171e-02 -1.003245e-36
2.443172e-02 -1.610177e-36
2.468172e-02 -1.826813e-36
2.493171e-02 -1.462578e-36
2.518171e-02 -4.767826e-37
2.543171e-02 9.633230e-37
2.568172e-02 2.481364e-36
2.593172e-02 3.564513e-36
2.618171e-02 3.705571e-36
2.643171e-02 2.583868e-36
2.668172e-02 2.322799e-37
2.693172e-02 -2.873171e-36
2.718171e-02 -5.854708e-36
2.743171e-02 -7.628244e-36
2.768171e-02 -7.227233e-36
2.793172e-02 -4.176932e-36
2.818172e-02 1.199033e-36
2.843171e-02 7.667590e-36
2.868171e-02 1.326498e-35
2.893171e-02 1.578289e-35
2.918172e-02 1.347748e-35
2.943172e-02 5.812750e-36
2.968171e-02 -6.014769e-36
2.993171e-02 -1.901544e-35
3.018172e-02 -2.896084e-35
3.043172e-02 -3.152626e-35
3.068171e-02 -2.378332e-35
3.093171e-02 -5.611315e-36
3.118171e-02 1.949006e-35
3.143172e-02 4.463795e-35
3.168172e-02 6.105833e-35
3.193171e-02 6.064452e-35
3.218171e-02 3.897971e-35
3.243172e-02 -2.118746e-36
3.268172e-02 -5.355231e-35
3.293172e-02 -1.001616e-34
3.318171e-02 -1.244031e-34
3.343171e-02 -1.118439e-34
3.368172e-02 -5.703810e-35
3.393172e-02 3.217441e-35
3.418171e-02 1.338745e-34
3.443171e-02 2.159783e-34
3.468171e-02 2.447506e-34
3.493172e-02 1.961273e-34
3.518172e-02 6.666577e-35
3.543171e-02 -1.198420e-34
3.568171e-02 -3.135329e-34
3.593172e-02 -4.490255e-34
3.618172e-02 -4.641370e-34
3.643171e-02 -3.223647e-34
3.668171e-02 -3.225398e-35
3.693171e-02 3.439244e-34
3.718172e-02 6.979500e-34
3.743172e-02 9.014599e-34
3.768171e-02 8.453605e-34
3.793171e-02 4.826594e-34
3.818171e-02 -1.393294e-34
3.843172e-02 -8.713736e-34
3.868172e-02 -1.488202e-33
3.893171e-02 -1.747314e-33
3.918171e-02 -1.468739e-33
3.943172e-02 -6.132280e-34
3.968172e-02 6.687682e-34
3.993171e-02 2.041493e-33
4.018171e-02 3.053732e-33
4.043171e-02 3.266135e-33
4.068172e-02 2.406232e-33
4.093172e-02 5.041783e-34
4.118171e-02 -2.042533e-33
4.143171e-02 -4.515510e-33
4.168172e-02 -6.044499e-33
4.193172e-02 -5.870554e-33
4.218172e-02 -3.635512e-33
4.243171e-02 3.959191e-34
4.268171e-02 5.275330e-33
4.293172e-02 9.530828e-33
4.318172e-02 1.154729e-32
4.343171e-02 1.008834e-32
4.368171e-02 4.814579e-33
4.393171e-02 -3.382813e-33
4.418172e-02 -1.239252e-32
4.443172e-02 -1.931617e-32
4.468171e-02 -2.127709e-32
4.493171e-02 -1.641578e-32
4.518172e-02 -4.772448e-33
4.543172e-02 1.127376e-32
4.568172e-02 2.726709e-32
4.593171e-02 3.771359e-32
4.618171e-02 3.772296e-32
4.643172e-02 2.483132e-32
4.668172e-02 4.186591e-34
4.693171e-02 -2.986176e-32
4.718171e-02 -5.702083e-32
4.743172e-02 -7.103736e-32
4.768172e-02 -6.405676e-32
4.793172e-02 -3.358446e-32
4.818171e-02 1.541244e-32
4.843171e-02 7.047628e-32
4.868172e-02 1.141970e-31
4.893172e-02 1.290322e-31
4.918171e-02 1.032780e-31
4.943171e-02 3.642066e-32
4.968171e-02 -5.812755e-32
4.993172e-02 -1.544341e-31
5.018172e-02 -2.200564e-31
5.043171e-02 -2.256530e-31
5.068171e-02 -1.557142e-31
5.093172e-02 -1.699531e-32
5.118172e-02 1.587644e-31
5.143172e-02 3.200501e-31
5.168171e-02 4.086998e-31
5.193171e-02 3.782678e-31
5.218172e-02 2.124914e-31
5.243172e-02 -6.242355e-32
5.268171e-02 -3.772652e-31
5.293171e-02 -6.338682e-31
5.318171e-02 -7.321192e-31
5.343172e-02 -6.036405e-31
5.368172e-02 -2.420842e-31
5.393171e-02 2.810425e-31
5.418171e-02 8.235778e-31
5.443172e-02 1.205638e-30
5.468172e-02 1.262511e-30
5.493172e-02 9.040262e-31
5.518171e-02 1.614417e-31
5.543171e-02 -7.968343e-31
5.568172e-02 -1.692687e-30
5.593172e-02 -2.209046e-30
5.618171e-02 -2.089183e-30
5.643171e-02 -1.236850e-30
5.668172e-02 2.165193e-31
5.693172e-02 1.907623e-30
5.718172e-02 3.314947e-30
5.743171e-02 3.901831e-30
5.768171e-02 3.295305e-30
5.793172e-02 1.447246e-30
5.818172e-02 -1.280374e-30
5.843171e-02 -4.151496e-30
5.868171e-02 -6.226177e-30
5.893171e-02 -6.636088e-30
5.918172e-02 -4.893388e-30
5.943172e-02 -1.135797e-30
5.968171e-02 3.789274e-30
5.993171e-02 8.463030e-30
6.018172e-02 1.125650e-29
6.043172e-02 1.083710e-29
6.068172e-02 6.680914e-30
6.093171e-02 -5.829197e-31
6.118171e-02 -9.146872e-30
6.143172e-02 -1.639267e-29
6.168172e-02 -1.960875e-29
6.193171e-02 -1.688655e-29
6.218171e-02 -7.929363e-30
6.243172e-02 5.518860e-30
6.268172e-02 1.984582e-29
6.293172e-02 3.040947e-29
6.318171e-02 3.289387e-29
6.343171e-02 2.483044e-29
6.368172e-02 6.803070e-30
6.393172e-02 -1.713410e-29
6.418172e-02 -4.012338e-29
6.443171e-02 -5.425049e-29
6.468171e-02 -5.299845e-29
6.493172e-02 -3.372019e-29
6.518172e-02 7.001831e-31
6.543171e-02 4.171764e-29
6.568171e-02 7.687446e-29
6.593172e-02 9.321600e-29
6.618172e-02 8.154830e-29
6.643172e-02 4.026811e-29
6.668171e-02 -2.260180e-29
6.693171e-02 -9.022276e-29
6.718172e-02 -1.408630e-28
6.743172e-02 -1.542417e-28
6.768171e-02 -1.186191e-28
6.793171e-02 -3.639941e-29
6.818172e-02 7.392923e-29
6.843172e-02 1.808771e-28
6.868172e-02 2.479997e-28
6.893171e-02 2.451642e-28
6.918171e-02 1.598634e-28
6.943172e-02 4.799153e-30
6.968172e-02 -1.815448e-28
6.993172e-02 -3.428552e-28
7.018171e-02 -4.204536e-28
7.043171e-02 -3.724878e-28
7.068172e-02 -1.911409e-28
7.093172e-02 8.829361e-29
7.118171e-02 3.910623e-28
7.143171e-02 6.204951e-28
7.168172e-02 6.862117e-28
7.193172e-02 5.355313e-28
7.218172e-02 1.781510e-28
7.243171e-02 -3.053856e-28
7.268171e-02 -7.773934e-28
7.293172e-02 -1.078364e-27
7.318172e-02 -1.076198e-27
7.343172e-02 -7.154042e-28
7.368171e-02 -4.980301e-29
7.393171e-02 7.551783e-28
7.418172e-02 1.457167e-27
7.443172e-02 1.803505e-27
7.468171e-02 1.613621e-27
7.493171e-02 8.525327e-28
7.518172e-02 -3.309053e-28
7.543172e-02 -1.620020e-27
7.568172e-02 -2.605322e-27
7.593171e-02 -2.903965e-27
7.618171e-02 -2.292230e-27
7.643172e-02 -8.088160e-28
7.668172e-02 1.210656e-27
7.693172e-02 3.191772e-27
7.718171e-02 4.469586e-27
7.743172e-02 4.493611e-27
7.768172e-02 3.031549e-27
7.793172e-02 3.033472e-28
7.818171e-02 -3.011176e-27
7.843171e-02 -5.916429e-27
7.868172e-02 -7.375977e-27
7.893172e-02 -6.649740e-27
7.918172e-02 -3.592288e-27
7.943171e-02 1.193750e-27
7.968171e-02 6.426051e-27
7.993172e-02 1.044893e-26
8.018172e-02 1.171742e-26
8.043171e-02 9.329579e-27
8.068171e-02 3.438175e-27
8.093172e-02 -4.616077e-27
8.118172e-02 -1.254229e-26
8.143172e-02 -1.769460e-26
8.168171e-02 -1.788780e-26
8.193171e-02 -1.220125e-26
8.218172e-02 -1.502762e-27
8.243172e-02 1.153121e-26
8.268172e-02 2.299141e-26
8.293171e-02 2.881942e-26
8.318172e-02 2.612628e-26
8.343172e-02 1.434830e-26
8.368172e-02 -4.169678e-27
8.393171e-02 -2.445495e-26
8.418171e-02 -4.010675e-26
8.443172e-02 -4.517311e-26
8.468172e-02 -3.619379e-26
8.493172e-02 -1.376635e-26
8.518171e-02 1.696854e-26
8.543171e-02 4.726355e-26
8.568172e-02 6.704966e-26
8.593172e-02 6.804520e-26
8.618172e-02 4.678799e-26
8.643171e-02 6.583807e-27
8.668172e-02 -4.246076e-26
8.693172e-02 -8.564618e-26
8.718172e-02 -1.077730e-25
8.743171e-02 -9.807500e-26
8.768171e-02 -5.450490e-26
8.793172e-02 1.415562e-26
8.818172e-02 8.941405e-26
8.843172e-02 1.475741e-25
8.868171e-02 1.666988e-25
8.893172e-02 1.341292e-25
8.918172e-02 5.217097e-26
8.943172e-02 -6.023466e-26
8.968171e-02 -1.710503e-25
8.993171e-02 -2.435778e-25
9.018172e-02 -2.477906e-25
9.043172e-02 -1.713031e-25
9.068172e-02 -2.628326e-26
9.093171e-02 1.506074e-25
9.118171e-02 3.063557e-25
9.143172e-02 3.864212e-25
9.168172e-02 3.524476e-25
9.193172e-02 1.974472e-25
9.218171e-02 -4.690565e-26
9.243172e-02 -3.145646e-25
9.268172e-02 -5.213670e-25
9.293172e-02 -5.898552e-25
9.318171e-02 -4.757781e-25
9.343171e-02 -1.878573e-25
9.368172e-02 2.067530e-25
9.393172e-02 5.953593e-25
9.418172e-02 8.496337e-25
9.443171e-02 8.652800e-25
9.468171e-02 6.000561e-25
9.493172e-02 9.724957e-26
9.518172e-02 -5.152265e-25
9.543172e-02 -1.053724e-24
9.568171e-02 -1.330482e-24
9.593172e-02 -1.214567e-24
9.618172e-02 -6.835809e-25
9.643172e-02 1.523489e-25
9.668171e-02 1.066351e-24
9.693171e-02 1.771287e-24
9.718172e-02 2.004668e-24
9.743172e-02 1.618412e-24
9.768172e-02 6.447335e-25
9.793171e-02 -6.870185e-25
9.818172e-02 -1.995652e-24
9.843172e-02 -2.849956e-24
9.868172e-02 -2.902333e-24
9.893171e-02 -2.015123e-24
9.918171e-02 -3.372283e-25
9.943172e-02 1.701676e-24
9.968172e-02 3.489685e-24
9.993172e-02 4.405581e-24
1.001817e-01 4.020657e-24
1.004317e-01 2.267330e-24
1.006817e-01 -4.849207e-25
1.009317e-01 -3.485834e-24
1.011817e-01 -5.793028e-24
1.014317e-01 -6.551743e-24
1.016817e-01 -5.286848e-24
1.019317e-01 -2.113868e-24
1.021817e-01 2.212152e-24
1.024317e-01 6.449571e-24
1.026817e-01 9.204551e-24
1.029317e-01 9.363616e-24
1.031817e-01 6.497933e-24
1.034317e-01 1.102471e-24
1.036817e-01 -5.431440e-24
1.039317e-01 -1.114046e-23
1.041817e-01 -1.404704e-23
1.044317e-01 -1.280190e-23
1.046817e-01 -7.214675e-24
1.049317e-01 1.518261e-24
1.051817e-01 1.100497e-23
1.054317e-01 1.826672e-23
1.056817e-01 2.062476e-23
1.059317e-01 1.661555e-23
1.061817e-01 6.639941e-24
1.064317e-01 -6.903201e-24
1.066817e-01 -2.011537e-23
1.069317e-01 -2.865625e-23
1.071817e-01 -2.909340e-23
1.074317e-01 -2.014763e-23
1.076817e-01 -3.410661e-24
1.079317e-01 1.677082e-23
1.081817e-01 3.432353e-23
1.084317e-01 4.318211e-23
1.086817e-01 3.926251e-23
1.089317e-01 2.206473e-23
1.091817e-01 -4.667512e-24
1.094317e-01 -3.357727e-23
1.096817e-01 -5.558533e-23
1.099317e-01 -6.260365e-23
1.101817e-01 -5.029764e-23
1.104317e-01 -2.001019e-23
1.106817e-01 2.089813e-23
1.109317e-01 6.061619e-23
1.111817e-01 8.610841e-23
1.114317e-01 8.718026e-23
1.116817e-01 6.017235e-23
1.119317e-01 1.003386e-23
1.121817e-01 -5.011943e-23
1.124317e-01 -1.021556e-22
1.126817e-01 -1.281323e-22
1.129317e-01 -1.161393e-22
1.131817e-01 -6.497142e-23
1.134317e-01 1.405008e-23
1.136817e-01 9.906864e-23
1.139317e-01 1.633741e-22
1.141817e-01 1.834066e-22
1.144317e-01 1.468114e-22
1.146817e-01 5.792587e-23
1.149317e-01 -6.141873e-23
1.151817e-01 -1.766523e-22
1.154317e-01 -2.499815e-22
1.156817e-01 -2.522030e-22
1.159317e-01 -1.732758e-22
1.161817e-01 -2.808996e-23
1.164317e-01 1.450985e-22
1.166817e-01 2.939940e-22
1.169317e-01 3.673442e-22
1.171817e-01 3.316604e-22
1.174317e-01 1.843410e-22
1.176817e-01 -4.148475e-23
1.179317e-01 -2.830504e-22
1.181817e-01 -4.644252e-22
1.184317e-01 -5.193459e-22
1.186817e-01 -4.138787e-22
1.189317e-01 -1.615277e-22
1.191817e-01 1.750654e-22
1.194317e-01 4.980851e-22
1.196817e-01 7.016397e-22
1.199317e-01 7.049418e-22
1.201817e-01 4.815594e-22
1.204317e-01 7.483270e-23
1.206817e-01 -4.072976e-22
1.209317e-01 -8.189773e-22
1.211817e-01 -1.018724e-21
1.214317e-01 -9.156091e-22
1.216817e-01 -5.049335e-22
1.219317e-01 1.194679e-22
1.221817e-01 7.832108e-22
1.224317e-01 1.277497e-21
1.226817e-01 1.422211e-21
1.229317e-01 1.127469e-21
1.231817e-01 4.338173e-22
1.234317e-01 -4.847844e-22
1.236817e-01 -1.360512e-21
1.239317e-01 -1.906413e-21
1.241817e-01 -1.906441e-21
1.244317e-01 -1.293774e-21
1.246817e-01 -1.905532e-22
1.249317e-01 1.108360e-21
1.251817e-01 2.209281e-21
1.254317e-01 2.734325e-21
1.256817e-01 2.445008e-21
1.259317e-01 1.335823e-21
1.261817e-01 -3.358568e-22
1.264317e-01 -2.100856e-21
1.266817e-01 -3.403554e-21
1.269317e-01 -3.770244e-21
1.271817e-01 -2.971176e-21
1.274317e-01 -1.123626e-21
1.276817e-01 1.304340e-21
1.279317e-01 3.602561e-21
1.281817e-01 5.018122e-21
1.284317e-01 4.992246e-21
1.286817e-01 3.362807e-21
1.289317e-01 4.631909e-22
1.291817e-01 -2.926261e-21
1.294317e-01 -5.776273e-21
1.296817e-01 -7.109801e-21
1.299317e-01 -6.321864e-21
1.301817e-01 -3.417191e-21
1.304317e-01 9.200563e-22
1.306817e-01 5.466742e-21
1.309317e-01 8.790418e-21
1.311817e-01 9.684745e-21
1.314317e-01 7.582367e-21
1.316817e-01 2.810895e-21
1.319317e-01 -3.409073e-21
1.321817e-01 -9.252431e-21
1.324317e-01 -1.280530e-20
1.326817e-01 -1.266820e-20
1.329317e-01 -8.463592e-21
1.331817e-01 -1.073278e-21
1.334317e-01 7.500526e-21
1.336817e-01 1.464936e-20
1.339317e-01 1.792532e-20
1.341817e-01 1.584297e-20
1.344317e-01 8.463781e-21
1.346817e-01 -2.448885e-21
1.349317e-01 -1.380300e-20
1.351817e-01 -2.201887e-20
1.354317e-01 -2.411912e-20
1.356817e-01 -1.875002e-20
1.359317e-01 -6.794996e-21
1.361817e-01 8.658942e-21
1.364317e-01 2.306287e-20
1.366817e-01 3.169984e-20
1.369317e-01 3.117414e-20
1.371817e-01 2.064316e-20
1.374317e-01 2.367884e-21
1.376817e-01 -1.866820e-20
1.379317e-01 -3.605318e-20
1.381817e-01 -4.383918e-20
1.384317e-01 -3.849436e-20
1.386817e-01 -2.029416e-20
1.389317e-01 6.352452e-21
1.391817e-01 3.386172e-20
1.394317e-01 5.355343e-20
1.396817e-01 5.830317e-20
1.399317e-01 4.498609e-20
1.401817e-01 1.590500e-20
1.404317e-01 -2.136228e-20
1.406817e-01 -5.581412e-20
1.409317e-01 -7.617003e-20
1.411817e-01 -7.444045e-20