-1.388183e-01 0.000000e+00
-1.385683e-01 0.000000e+00
-1.383183e-01 0.000000e+00
-1.380683e-01 0.000000e+00
-1.378183e-01 0.000000e+00
-1.375683e-01 0.000000e+00
-1.373183e-01 0.000000e+00
-1.370683e-01 0.000000e+00
-1.368183e-01 0.000000e+00
-1.365683e-01 0.000000e+00
-1.363183e-01 0.000000e+00
-1.360683e-01 0.000000e+00
-1.358183e-01 0.000000e+00
-1.355683e-01 0.000000e+00
-1.353183e-01 0.000000e+00
-1.350683e-01 0.000000e+00
-1.348183e-01 0.000000e+00
-1.345683e-01 0.000000e+00
-1.343183e-01 0.000000e+00
-1.340683e-01 0.000000e+00
-1.338183e-01 0.000000e+00
-1.335683e-01 0.000000e+00
-1.333183e-01 0.000000e+00
-1.330683e-01 0.000000e+00
-1.328183e-01 0.000000e+00
-1.325683e-01 0.000000e+00
-1.323183e-01 0.000000e+00
-1.320683e-01 0.000000e+00
-1.318183e-01 0.000000e+00
-1.315683e-01 0.000000e+00
-1.313183e-01 0.000000e+00
-1.310683e-01 0.000000e+00
-1.308183e-01 0.000000e+00
-1.305683e-01 0.000000e+00
-1.303183e-01 0.000000e+00
-1.300683e-01 0.000000e+00
-1.298183e-01 0.000000e+00
-1.295683e-01 0.000000e+00
-1.293183e-01 0.000000e+00
-1.290683e-01 0.000000e+00
-1.288183e-01 0.000000e+00
-1.285683e-01 0.000000e+00
-1.283183e-01 0.000000e+00
-1.280683e-01 0.000000e+00
-1.278183e-01 0.000000e+00
-1.275683e-01 0.000000e+00
-1.273183e-01 0.000000e+00
-1.270683e-01 0.000000e+00
-1.268183e-01 0.000000e+00
-1.265683e-01 0.000000e+00
-1.263183e-01 0.000000e+00
-1.260683e-01 0.000000e+00
-1.258183e-01 0.000000e+00
-1.255683e-01 0.000000e+00
-1.253183e-01 0.000000e+00
-1.250683e-01 0.000000e+00
-1.248183e-01 0.000000e+00
-1.245683e-01 0.000000e+00
-1.243183e-01 0.000000e+00
-1.240683e-01 0.000000e+00
-1.238183e-01 0.000000e+00
-1.235683e-01 0.000000e+00
-1.233183e-01 0.000000e+00
-1.230683e-01 0.000000e+00
-1.228183e-01 0.000000e+00
-1.225683e-01 0.000000e+00
-1.223183e-01 0.000000e+00
-1.220683e-01 0.000000e+00
-1.218183e-01 0.000000e+00
-1.215683e-01 0.000000e+00
-1.213183e-01 0.000000e+00
-1.210683e-01 0.000000e+00
-1.208183e-01 0.000000e+00
-1.205683e-01 0.000000e+00
-1.203183e-01 0.000000e+00
-1.200683e-01 0.000000e+00
-1.198183e-01 0.000000e+00
-1.195683e-01 0.000000e+00
-1.193183e-01 0.000000e+00
-1.190683e-01 0.000000e+00
-1.188183e-01 0.000000e+00
-1.185683e-01 0.000000e+00
-1.183183e-01 0.000000e+00
-1.180683e-01 0.000000e+00
-1.178183e-01 0.000000e+00
-1.175683e-01 0.000000e+00
-1.173183e-01 0.000000e+00
-1.170683e-01 0.000000e+00
-1.168183e-01 0.000000e+00
-1.165683e-01 0.000000e+00
-1.163183e-01 0.000000e+00
-1.160683e-01 0.000000e+00
-1.158183e-01 0.000000e+00
-1.155683e-01 0.000000e+00
-1.153183e-01 0.000000e+00
-1.150683e-01 0.000000e+00
-1.148183e-01 0.000000e+00
-1.145683e-01 0.000000e+00
-1.143183e-01 0.000000e+00
-1.140683e-01 0.000000e+00
-1.138183e-01 0.000000e+00
-1.135683e-01 0.000000e+00
-1.133183e-01 0.000000e+00
-1.130683e-01 0.000000e+00
-1.128183e-01 0.000000e+00
-1.125683e-01 0.000000e+00
-1.123183e-01 0.000000e+00
-1.120683e-01 0.000000e+00
-1.118183e-01 0.000000e+00
-1.115683e-01 0.000000e+00
-1.113183e-01 0.000000e+00
-1.110683e-01 0.000000e+00
-1.108183e-01 0.000000e+00
-1.105683e-01 0.000000e+00
-1.103183e-01 0.000000e+00
-1.100683e-01 0.000000e+00
-1.098183e-01 0.000000e+00
-1.095683e-01 0.000000e+00
-1.093183e-01 0.000000e+00
-1.090683e-01 0.000000e+00
-1.088183e-01 0.000000e+00
-1.085683e-01 0.000000e+00
-1.083183e-01 0.000000e+00
-1.080683e-01 0.000000e+00
-1.078183e-01 0.000000e+00
-1.075683e-01 0.000000e+00
-1.073183e-01 0.000000e+00
-1.070683e-01 0.000000e+00
-1.068183e-01 0.000000e+00
-1.065683e-01 0.000000e+00
-1.063183e-01 0.000000e+00
-1.060683e-01 0.000000e+00
-1.058183e-01 0.000000e+00
-1.055683e-01 0.000000e+00
-1.053183e-01 0.000000e+00
-1.050683e-01 0.000000e+00
-1.048183e-01 0.000000e+00
-1.045683e-01 0.000000e+00
-1.043183e-01 0.000000e+00
-1.040683e-01 0.000000e+00
-1.038183e-01 0.000000e+00
-1.035683e-01 0.000000e+00
-1.033183e-01 0.000000e+00
-1.030683e-01 0.000000e+00
-1.028183e-01 0.000000e+00
-1.025683e-01 0.000000e+00
-1.023183e-01 0.000000e+00
-1.020683e-01 0.000000e+00
-1.018183e-01 0.000000e+00
-1.015683e-01 0.000000e+00
-1.013183e-01 0.000000e+00
-1.010683e-01 0.000000e+00
-1.008183e-01 0.000000e+00
-1.005683e-01 0.000000e+00
-1.003183e-01 0.000000e+00
-1.000683e-01 0.000000e+00
-9.981829e-02 0.000000e+00
-9.956829e-02 0.000000e+00
-9.931830e-02 0.000000e+00
-9.906829e-02 0.000000e+00
-9.881829e-02 0.000000e+00
-9.856829e-02 0.000000e+00
-9.831829e-02 0.000000e+00
-9.806830e-02 0.000000e+00
-9.781829e-02 0.000000e+00
-9.756829e-02 0.000000e+00
-9.731829e-02 0.000000e+00
-9.706829e-02 0.000000e+00
-9.681829e-02 0.000000e+00
-9.656829e-02 0.000000e+00
-9.631829e-02 0.000000e+00
-9.606829e-02 0.000000e+00
-9.581830e-02 0.000000e+00
-9.556829e-02 0.000000e+00
-9.531829e-02 0.000000e+00
-9.506829e-02 0.000000e+00
-9.481829e-02 0.000000e+00
-9.456830e-02 0.000000e+00
-9.431829e-02 0.000000e+00
-9.406829e-02 0.000000e+00
-9.381829e-02 0.000000e+00
-9.356830e-02 0.000000e+00
-9.331829e-02 0.000000e+00
-9.306829e-02 0.000000e+00
-9.281829e-02 0.000000e+00
-9.256829e-02 0.000000e+00
-9.231830e-02 0.000000e+00
-9.206829e-02 0.000000e+00
-9.181829e-02 0.000000e+00
-9.156829e-02 0.000000e+00
-9.131829e-02 0.000000e+00
-9.106829e-02 0.000000e+00
-9.081829e-02 0.000000e+00
-9.056829e-02 0.000000e+00
-9.031829e-02 0.000000e+00
-9.006830e-02 0.000000e+00
-8.981829e-02 0.000000e+00
-8.956829e-02 0.000000e+00
-8.931829e-02 0.000000e+00
-8.906829e-02 0.000000e+00
-8.881830e-02 0.000000e+00
-8.856829e-02 0.000000e+00
-8.831829e-02 0.000000e+00
-8.806829e-02 0.000000e+00
-8.781829e-02 0.000000e+00
-8.756829e-02 0.000000e+00
-8.731829e-02 0.000000e+00
-8.706829e-02 0.000000e+00
-8.681829e-02 0.000000e+00
-8.656830e-02 0.000000e+00
-8.631829e-02 0.000000e+00
-8.606829e-02 0.000000e+00
-8.581829e-02 0.000000e+00
-8.556829e-02 0.000000e+00
-8.531829e-02 0.000000e+00
-8.506829e-02 0.000000e+00
-8.481829e-02 0.000000e+00
-8.456829e-02 0.000000e+00
-8.431830e-02 0.000000e+00
-8.406829e-02 0.000000e+00
-8.381829e-02 0.000000e+00
-8.356829e-02 0.000000e+00
-8.331829e-02 0.000000e+00
-8.306830e-02 0.000000e+00
-8.281829e-02 0.000000e+00
-8.256829e-02 0.000000e+00
-8.231829e-02 0.000000e+00
-8.206829e-02 0.000000e+00
-8.181829e-02 0.000000e+00
-8.156829e-02 0.000000e+00
-8.131829e-02 0.000000e+00
-8.106829e-02 0.000000e+00
-8.081830e-02 0.000000e+00
-8.056829e-02 0.000000e+00
-8.031829e-02 0.000000e+00
-8.006829e-02 0.000000e+00
-7.981829e-02 0.000000e+00
-7.956829e-02 0.000000e+00
-7.931829e-02 0.000000e+00
-7.906829e-02 0.000000e+00
-7.881829e-02 0.000000e+00
-7.856829e-02 0.000000e+00
-7.831829e-02 0.000000e+00
-7.806829e-02 0.000000e+00
-7.781829e-02 0.000000e+00
-7.756829e-02 0.000000e+00
-7.731830e-02 0.000000e+00
-7.706829e-02 0.000000e+00
-7.681829e-02 0.000000e+00
-7.656829e-02 0.000000e+00
-7.631829e-02 0.000000e+00
-7.606829e-02 0.000000e+00
-7.581829e-02 0.000000e+00
-7.556829e-02 0.000000e+00
-7.531829e-02 0.000000e+00
-7.506829e-02 0.000000e+00
-7.481829e-02 0.000000e+00
-7.456829e-02 0.000000e+00
-7.431829e-02 0.000000e+00
-7.406829e-02 0.000000e+00
-7.381829e-02 0.000000e+00
-7.356829e-02 0.000000e+00
-7.331829e-02 0.000000e+00
-7.306829e-02 0.000000e+00
-7.281829e-02 0.000000e+00
-7.256829e-02 0.000000e+00
-7.231829e-02 0.000000e+00
-7.206829e-02 0.000000e+00
-7.181829e-02 0.000000e+00
-7.156829e-02 0.000000e+00
-7.131829e-02 0.000000e+00
-7.106829e-02 0.000000e+00
-7.081829e-02 0.000000e+00
-7.056829e-02 0.000000e+00
-7.031829e-02 0.000000e+00
-7.006829e-02 0.000000e+00
-6.981829e-02 0.000000e+00
-6.956829e-02 0.000000e+00
-6.931829e-02 0.000000e+00
-6.906829e-02 0.000000e+00
-6.881829e-02 0.000000e+00
-6.856829e-02 0.000000e+00
-6.831829e-02 0.000000e+00
-6.806829e-02 0.000000e+00
-6.781829e-02 0.000000e+00
-6.756829e-02 0.000000e+00
-6.731829e-02 0.000000e+00
-6.706829e-02 0.000000e+00
-6.681829e-02 0.000000e+00
-6.656829e-02 0.000000e+00
-6.631829e-02 0.000000e+00
-6.606829e-02 0.000000e+00
-6.581829e-02 0.000000e+00
-6.556829e-02 0.000000e+00
-6.531829e-02 0.000000e+00
-6.506829e-02 0.000000e+00
-6.481829e-02 0.000000e+00
-6.456829e-02 0.000000e+00
-6.431829e-02 0.000000e+00
-6.406829e-02 0.000000e+00
-6.381829e-02 0.000000e+00
-6.356829e-02 0.000000e+00
-6.331829e-02 0.000000e+00
-6.306829e-02 0.000000e+00
-6.281829e-02 0.000000e+00
-6.256829e-02 0.000000e+00
-6.231829e-02 0.000000e+00
-6.206829e-02 0.000000e+00
-6.181829e-02 0.000000e+00
-6.156829e-02 0.000000e+00
-6.131829e-02 0.000000e+00
-6.106829e-02 0.000000e+00
-6.081829e-02 0.000000e+00
-6.056829e-02 0.000000e+00
-6.031829e-02 0.000000e+00
-6.006829e-02 0.000000e+00
-5.981829e-02 0.000000e+00
-5.956829e-02 0.000000e+00
-5.931829e-02 0.000000e+00
-5.906829e-02 0.000000e+00
-5.881829e-02 0.000000e+00
-5.856829e-02 0.000000e+00
-5.831829e-02 0.000000e+00
-5.806829e-02 0.000000e+00
-5.781829e-02 0.000000e+00
-5.756829e-02 0.000000e+00
-5.731829e-02 0.000000e+00
-5.706829e-02 0.000000e+00
-5.681829e-02 0.000000e+00
-5.656829e-02 0.000000e+00
-5.631829e-02 0.000000e+00
-5.606829e-02 0.000000e+00
-5.581829e-02 0.000000e+00
-5.556829e-02 0.000000e+00
-5.531829e-02 0.000000e+00
-5.506829e-02 0.000000e+00
-5.481829e-02 0.000000e+00
-5.456829e-02 0.000000e+00
-5.431829e-02 0.000000e+00
-5.406829e-02 0.000000e+00
-5.381829e-02 0.000000e+00
-5.356829e-02 0.000000e+00
-5.331829e-02 0.000000e+00
-5.306829e-02 0.000000e+00
-5.281829e-02 0.000000e+00
-5.256829e-02 0.000000e+00
-5.231829e-02 0.000000e+00
-5.206829e-02 0.000000e+00
-5.181829e-02 0.000000e+00
-5.156829e-02 0.000000e+00
-5.131829e-02 0.000000e+00
-5.106829e-02 0.000000e+00
-5.081829e-02 0.000000e+00
-5.056829e-02 0.000000e+00
-5.031829e-02 0.000000e+00
-5.006829e-02 0.000000e+00
-4.981829e-02 0.000000e+00
-4.956829e-02 0.000000e+00
-4.931829e-02 0.000000e+00
-4.906829e-02 0.000000e+00
-4.881829e-02 0.000000e+00
-4.856829e-02 0.000000e+00
-4.831829e-02 0.000000e+00
-4.806829e-02 0.000000e+00
-4.781829e-02 0.000000e+00
-4.756829e-02 0.000000e+00
-4.731829e-02 0.000000e+00
-4.706829e-02 0.000000e+00
-4.681829e-02 0.000000e+00
-4.656829e-02 0.000000e+00
-4.631829e-02 0.000000e+00
-4.606829e-02 0.000000e+00
-4.581829e-02 0.000000e+00
-4.556829e-02 0.000000e+00
-4.531829e-02 0.000000e+00
-4.506829e-02 0.000000e+00
-4.481829e-02 0.000000e+00
-4.456829e-02 0.000000e+00
-4.431829e-02 0.000000e+00
-4.406829e-02 0.000000e+00
-4.381829e-02 0.000000e+00
-4.356829e-02 0.000000e+00
-4.331829e-02 0.000000e+00
-4.306829e-02 0.000000e+00
-4.281829e-02 0.000000e+00
-4.256829e-02 0.000000e+00
-4.231829e-02 0.000000e+00
-4.206829e-02 0.000000e+00
-4.181829e-02 0.000000e+00
-4.156829e-02 0.000000e+00
-4.131829e-02 0.000000e+00
-4.106829e-02 0.000000e+00
-4.081829e-02 0.000000e+00
-4.056829e-02 0.000000e+00
-4.031829e-02 0.000000e+00
-4.006829e-02 0.000000e+00
-3.981829e-02 0.000000e+00
-3.956829e-02 0.000000e+00
-3.931829e-02 0.000000e+00
-3.906829e-02 0.000000e+00
-3.881829e-02 0.000000e+00
-3.856829e-02 0.000000e+00
-3.831829e-02 0.000000e+00
-3.806829e-02 0.000000e+00
-3.781829e-02 0.000000e+00
-3.756829e-02 0.000000e+00
-3.731829e-02 0.000000e+00
-3.706829e-02 0.000000e+00
-3.681829e-02 0.000000e+00
-3.656829e-02 0.000000e+00
-3.631829e-02 0.000000e+00
-3.606829e-02 0.000000e+00
-3.581829e-02 0.000000e+00
-3.556829e-02 0.000000e+00
-3.531829e-02 0.000000e+00
-3.506829e-02 0.000000e+00
-3.481829e-02 0.000000e+00
-3.456829e-02 0.000000e+00
-3.431829e-02 0.000000e+00
-3.406829e-02 0.000000e+00
-3.381829e-02 0.000000e+00
-3.356829e-02 0.000000e+00
-3.331829e-02 0.000000e+00
-3.306829e-02 0.000000e+00
-3.281829e-02 0.000000e+00
-3.256829e-02 0.000000e+00
-3.231829e-02 0.000000e+00
-3.206829e-02 0.000000e+00
-3.181829e-02 0.000000e+00
-3.156829e-02 0.000000e+00
-3.131829e-02 0.000000e+00
-3.106829e-02 0.000000e+00
-3.081829e-02 0.000000e+00
-3.056829e-02 0.000000e+00
-3.031829e-02 0.000000e+00
-3.006829e-02 0.000000e+00
-2.981829e-02 0.000000e+00
-2.956829e-02 0.000000e+00
-2.931829e-02 0.000000e+00
-2.906829e-02 0.000000e+00
-2.881829e-02 0.000000e+00
-2.856829e-02 0.000000e+00
-2.831829e-02 0.000000e+00
-2.806829e-02 0.000000e+00
-2.781828e-02 0.000000e+00
-2.756829e-02 0.000000e+00
-2.731829e-02 0.000000e+00
-2.706829e-02 0.000000e+00
-2.681829e-02 0.000000e+00
-2.656829e-02 0.000000e+00
-2.631829e-02 0.000000e+00
-2.606829e-02 0.000000e+00
-2.581829e-02 0.000000e+00
-2.556829e-02 0.000000e+00
-2.531829e-02 0.000000e+00
-2.506829e-02 0.000000e+00
-2.481829e-02 0.000000e+00
-2.456829e-02 0.000000e+00
-2.431829e-02 0.000000e+00
-2.406829e-02 0.000000e+00
-2.381829e-02 0.000000e+00
-2.356829e-02 0.000000e+00
-2.331829e-02 0.000000e+00
-2.306829e-02 0.000000e+00
-2.281829e-02 0.000000e+00
-2.256829e-02 0.000000e+00
-2.231829e-02 0.000000e+00
-2.206829e-02 0.000000e+00
-2.181829e-02 0.000000e+00
-2.156829e-02 0.000000e+00
-2.131829e-02 0.000000e+00
-2.106829e-02 0.000000e+00
-2.081829e-02 0.000000e+00
-2.056829e-02 0.000000e+00
-2.031828e-02 0.000000e+00
-2.006829e-02 0.000000e+00
-1.981829e-02 0.000000e+00
-1.956829e-02 0.000000e+00
-1.931829e-02 0.000000e+00
-1.906829e-02 0.000000e+00
-1.881829e-02 0.000000e+00
-1.856828e-02 0.000000e+00
-1.831829e-02 0.000000e+00
-1.806829e-02 0.000000e+00
-1.781829e-02 -2.802597e-45
-1.756829e-02 -1.401298e-45
-1.731829e-02 -4.203895e-45
-1.706829e-02 -1.401298e-45
-1.681828e-02 -7.006492e-45
-1.656829e-02 -9.809089e-45
-1.631829e-02 -1.261169e-44
-1.606829e-02 -8.407791e-45
-1.581829e-02 -4.203895e-45
-1.556829e-02 7.006492e-45
-1.531829e-02 2.101948e-44
-1.506829e-02 3.503246e-44
-1.481829e-02 3.783506e-44
-1.456829e-02 2.942727e-44
-1.431829e-02 4.203895e-45
-1.406829e-02 -3.082857e-44
-1.381829e-02 -7.567012e-44
-1.356828e-02 -1.135052e-43
-1.331829e-02 -1.177091e-43
-1.306829e-02 -7.146622e-44
-1.281829e-02 1.961818e-44
-1.256830e-02 1.457350e-43
-1.231828e-02 2.662467e-43
-1.206829e-02 3.531272e-43
-1.181829e-02 3.265025e-43
-1.156829e-02 1.681558e-43
-1.131828e-02 -1.387285e-43
-1.106828e-02 -5.310921e-43
-1.081829e-02 -8.856206e-43
-1.056829e-02 -1.062184e-42
-1.031829e-02 -8.996336e-43
-1.006828e-02 -3.012792e-43
-9.818286e-03 6.768272e-43
-9.568289e-03 1.835701e-42
-9.318292e-03 2.794189e-42
-9.068280e-03 3.088462e-42
-8.818284e-03 2.300932e-42
-8.568287e-03 2.634441e-43
-8.318290e-03 -2.782979e-42
-8.068293e-03 -6.084438e-42
-7.818282e-03 -8.472251e-42
-7.568285e-03 -8.612380e-42
-7.318288e-03 -5.460860e-42
-7.068291e-03 1.186900e-42
-6.818295e-03 1.027432e-41
-6.568283e-03 1.930149e-41
-6.318286e-03 2.474693e-41
-6.068289e-03 2.295187e-41
-5.818292e-03 1.150606e-41
-5.568281e-03 -9.276596e-42
-5.318284e-03 -3.533374e-41
-5.068287e-03 -5.882791e-41
-4.818290e-03 -6.959128e-41
-4.568294e-03 -5.810064e-41
-4.318282e-03 -1.943321e-41
-4.068285e-03 4.290356e-41
-3.818288e-03 1.147930e-40
-3.568292e-03 1.725615e-40
-3.318280e-03 1.881664e-40
-3.068283e-03 1.381834e-40
-2.818286e-03 1.474306e-41
-2.568290e-03 -1.650099e-40
-2.318293e-03 -3.553259e-40
-2.068281e-03 -4.877233e-40
-1.818284e-03 -4.880400e-40
-1.568288e-03 -3.026272e-40
-1.318291e-03 7.282828e-41
-1.068294e-03 5.717466e-40
-8.182824e-04 1.053691e-39
-5.682856e-04 1.328497e-39
-3.182888e-04 1.209081e-39
-6.829202e-05 5.840892e-40
1.817197e-04 -5.095780e-40
4.317164e-04 -1.842288e-39
6.817132e-04 -3.003148e-39
9.317100e-04 -3.485220e-39
1.181707e-03 -2.840627e-39
1.431718e-03 -8.737278e-40
1.681715e-03 2.186523e-39
1.931712e-03 5.608792e-39
2.181709e-03 8.242365e-39
2.431706e-03 8.791263e-39
2.681717e-03 6.248855e-39
2.931714e-03 3.891013e-40
3.181711e-03 -7.850133e-39
3.431708e-03 -1.627832e-38
3.681719e-03 -2.180339e-38
3.931716e-03 -2.125638e-38
4.181713e-03 -1.255573e-38
4.431710e-03 4.100709e-39
4.681706e-03 2.545643e-38
4.931718e-03 4.527794e-38
5.181715e-03 5.558718e-38
5.431712e-03 4.900757e-38
5.681708e-03 2.175236e-38
5.931720e-03 -2.363283e-38
6.181717e-03 -7.689492e-38
6.431714e-03 -1.210842e-37
6.681710e-03 -1.364445e-37
6.931707e-03 -1.067710e-37
7.181719e-03 -2.675097e-38
7.431716e-03 9.211129e-38
7.681713e-03 2.197122e-37
7.931709e-03 3.118709e-37
8.181706e-03 3.217276e-37
8.431718e-03 2.162199e-37
8.681715e-03 -6.703571e-39
8.931711e-03 -3.062940e-37
9.181708e-03 -5.989600e-37
9.431720e-03 -7.741439e-37
9.681717e-03 -7.258169e-37
9.931713e-03 -3.933634e-37
1.018171e-02 2.000619e-37
1.043171e-02 9.268471e-37
1.068172e-02 1.565749e-36
1.093172e-02 1.851168e-36
1.118171e-02 1.555902e-36
1.143171e-02 5.882861e-37
1.168172e-02 -9.273556e-37
1.193172e-02 -2.622437e-36
1.218171e-02 -3.936365e-36
1.243171e-02 -4.257499e-36
1.268171e-02 -3.130888e-36
1.293172e-02 -4.787522e-37
1.318172e-02 3.243392e-36
1.343171e-02 7.034283e-36
1.368171e-02 9.531069e-36
1.393171e-02 9.388205e-36
1.418172e-02 5.776675e-36
1.443172e-02 -1.140021e-36
1.468171e-02 -9.935930e-36
1.493171e-02 -1.802638e-35
1.518172e-02 -2.223080e-35
1.543172e-02 -1.973949e-35
1.568171e-02 -9.262269e-36
1.593171e-02 8.002509e-36
1.618171e-02 2.799258e-35
1.643172e-02 4.433109e-35
1.668172e-02 4.990017e-35
1.693171e-02 3.919506e-35
1.718171e-02 1.085021e-35
1.743171e-02 -3.053071e-35
1.768172e-02 -7.413294e-35
1.793171e-02 -1.048746e-34
1.818171e-02 -1.075258e-34
1.843171e-02 -7.219410e-35
1.868172e-02 3.888100e-37
1.893172e-02 9.576872e-35
1.918171e-02 1.866782e-34
1.943171e-02 2.388866e-34
1.968171e-02 2.214161e-34
1.993172e-02 1.187781e-34
2.018172e-02 -5.858333e-35
2.043171e-02 -2.699947e-34
2.068171e-02 -4.498720e-34
2.093172e-02 -5.237081e-34
2.118172e-02 -4.322300e-34
2.143171e-02 -1.574912e-34
2.168171e-02 2.579598e-34
2.193171e-02 7.078963e-34
2.218172e-02 1.041256e-33
2.243172e-02 1.102915e-33
2.268171e-02 7.883211e-34
2.293171e-02 9.645411e-35
2.318171e-02 -8.385284e-34
2.343172e-02 -1.754803e-33
2.368172e-02 -2.318630e-33
2.393171e-02 -2.222709e-33
2.418171e-02 -1.304438e-33
2.443172e-02 3.525870e-34
2.468172e-02 2.375376e-33
2.493171e-02 4.149499e-33
2.518171e-02 4.967945e-33
2.543171e-02 4.257121e-33
2.568172e-02 1.821513e-33
2.593172e-02 -1.975434e-33
2.618171e-02 -6.177832e-33
2.643171e-02 -9.406348e-33
2.668172e-02 -1.022807e-32
2.693172e-02 -7.652938e-33
2.718171e-02 -1.615546e-33
2.743171e-02 6.734600e-33
2.768171e-02 1.509345e-32
2.793172e-02 2.049269e-32
2.818172e-02 2.016776e-32
2.843171e-02 1.260127e-32
2.868171e-02 -1.581210e-33
2.893171e-02 -1.922489e-32
2.918172e-02 -3.505180e-32
2.943172e-02 -4.293834e-32
2.968171e-02 -3.785433e-32
2.993171e-02 -1.795859e-32
3.018172e-02 1.385259e-32
3.043172e-02 4.964873e-32
3.068171e-02 7.787601e-32
3.093171e-02 8.644883e-32
3.118171e-02 6.688913e-32
3.143172e-02 1.833111e-32
3.168172e-02 -5.006984e-32
3.193171e-02 -1.196206e-31
3.218171e-02 -1.660898e-31
3.243172e-02 -1.667680e-31
3.268172e-02 -1.089189e-31
3.293172e-02 2.996582e-33
3.318171e-02 1.442220e-31
3.343171e-02 2.729497e-31
3.368172e-02 3.404779e-31
3.393172e-02 3.065488e-31
3.418171e-02 1.558320e-31
3.443171e-02 -8.997338e-32
3.468171e-02 -3.698770e-31
3.493172e-02 -5.946061e-31
3.518172e-02 -6.705345e-31
3.543171e-02 -5.315105e-31
3.568171e-02 -1.694385e-31
3.593172e-02 3.475217e-31
3.618172e-02 8.788263e-31
3.643171e-02 1.241944e-30
3.668171e-02 1.265523e-30
3.693171e-02 8.525467e-31
3.718172e-02 3.383791e-32
3.743172e-02 -1.009475e-30
3.768171e-02 -1.970498e-30
3.793171e-02 -2.491693e-30
3.818171e-02 -2.277232e-30
3.843172e-02 -1.212659e-30
3.868172e-02 5.483229e-31
3.893171e-02 2.568905e-30
3.918171e-02 4.209747e-30
3.943172e-02 4.801160e-30
3.968172e-02 3.869829e-30
3.993171e-02 1.354355e-30
4.018171e-02 -2.268876e-30
4.043171e-02 -6.016316e-30
4.068172e-02 -8.613185e-30
4.093172e-02 -8.865690e-30
4.118171e-02 -6.098375e-30
4.143171e-02 -5.197906e-31
4.168172e-02 6.629556e-30
4.193172e-02 1.325300e-29
4.218172e-02 1.691635e-29
4.243171e-02 1.561313e-29
4.268171e-02 8.569752e-30
4.293172e-02 -3.180641e-30
4.318172e-02 -1.671348e-29
4.343171e-02 -2.776686e-29
4.368171e-02 -3.189768e-29
4.393171e-02 -2.598363e-29
4.418172e-02 -9.631373e-30
4.443172e-02 1.402312e-29
4.468171e-02 3.854874e-29
4.493171e-02 5.565696e-29
4.518172e-02 5.763312e-29
4.543172e-02 4.015400e-29
4.568172e-02 4.603676e-30
4.593171e-02 -4.103913e-29
4.618171e-02 -8.339259e-29
4.643172e-02 -1.070246e-28
4.668172e-02 -9.931600e-29
4.693171e-02 -5.550213e-29
4.718171e-02 1.781569e-29
4.743172e-02 1.022719e-28
4.768172e-02 1.713235e-28
4.793172e-02 1.975163e-28
4.818171e-02 1.617720e-28
4.843171e-02 6.194875e-29
4.868172e-02 -8.246439e-29
4.893172e-02 -2.320470e-28
4.918171e-02 -3.364412e-28
4.943171e-02 -3.492157e-28
4.968171e-02 -2.448120e-28
4.993172e-02 -3.218546e-29
5.018172e-02 2.403417e-28
5.043171e-02 4.927153e-28
5.068171e-02 6.334972e-28
5.093172e-02 5.887977e-28
5.118172e-02 3.317516e-28
5.143172e-02 -9.752435e-29
5.168171e-02 -5.905511e-28
5.193171e-02 -9.923748e-28
5.218172e-02 -1.144425e-27
5.243172e-02 -9.382845e-28
5.268171e-02 -3.642816e-28
5.293171e-02 4.630367e-28
5.318171e-02 1.316495e-27
5.343172e-02 1.909254e-27
5.368172e-02 1.980109e-27
5.393171e-02 1.388943e-27
5.418171e-02 1.917153e-28
5.443172e-02 -1.335386e-27
5.468172e-02 -2.742151e-27
5.493172e-02 -3.520545e-27
5.518171e-02 -3.266321e-27
5.543171e-02 -1.840430e-27
5.568172e-02 5.252989e-28
5.593172e-02 3.226714e-27
5.618171e-02 5.413339e-27
5.643171e-02 6.226263e-27
5.668172e-02 5.090502e-27
5.693172e-02 1.973271e-27
5.718172e-02 -2.487845e-27
5.743171e-02 -7.058814e-27
5.768171e-02 -1.020328e-26
5.793172e-02 -1.054329e-26
5.818172e-02 -7.364284e-27
5.843171e-02 -1.000846e-27
5.868171e-02 7.054408e-27
5.893171e-02 1.441495e-26
5.918172e-02 1.842611e-26
5.943172e-02 1.701484e-26
5.968171e-02 9.520000e-27
5.993171e-02 -2.784994e-27
6.018172e-02 -1.672060e-26
6.043172e-02 -2.788639e-26
6.068172e-02 -3.190645e-26
6.093171e-02 -2.592610e-26
6.118171e-02 -9.901212e-27
6.143172e-02 1.280349e-26
6.168172e-02 3.585460e-26
6.193171e-02 5.149330e-26
6.218171e-02 5.288276e-26
6.243172e-02 3.662460e-26
6.268172e-02 4.620620e-27
6.293172e-02 -3.548871e-26
6.318171e-02 -7.175010e-26
6.343171e-02 -9.108199e-26
6.368172e-02 -8.349107e-26
6.393172e-02 -4.609452e-26
6.418172e-02 1.446090e-26
6.443171e-02 8.233109e-26
6.468171e-02 1.359997e-25
6.493172e-02 1.544404e-25
6.518172e-02 1.243503e-25
6.543171e-02 4.620935e-26
6.568171e-02 -6.312893e-26
6.593172e-02 -1.728877e-25
6.618172e-02 -2.460302e-25
6.643172e-02 -2.505689e-25
6.668171e-02 -1.714026e-25
6.693171e-02 -1.876814e-26
6.718172e-02 1.702304e-25
6.743172e-02 3.388982e-25
6.768171e-02 4.262927e-25
6.793171e-02 3.870134e-25
6.818172e-02 2.095966e-25
6.843172e-02 -7.298959e-26
6.868172e-02 -3.858480e-25
6.893171e-02 -6.293298e-25
6.918171e-02 -7.079153e-25
6.943172e-02 -5.632843e-25
6.968172e-02 -2.011890e-25
6.993172e-02 2.981579e-25
7.018171e-02 7.928668e-25
7.043171e-02 1.115444e-24
7.068172e-02 1.124417e-24
7.093172e-02 7.570212e-25
7.118171e-02 6.535482e-26
7.143171e-02 -7.793763e-25
7.168172e-02 -1.522000e-24
7.193172e-02 -1.893497e-24
7.218172e-02 -1.699031e-24
7.243171e-02 -8.975524e-25
7.268171e-02 3.554922e-25
7.293172e-02 1.723657e-24
7.318172e-02 2.768893e-24
7.343172e-02 3.080007e-24
7.368171e-02 2.416001e-24
7.393171e-02 8.187725e-25
7.418172e-02 -1.348517e-24
7.443172e-02 -3.464096e-24
7.468171e-02 -4.808826e-24
7.493171e-02 -4.789933e-24
7.518172e-02 -3.163389e-24
7.543172e-02 -1.798597e-25
7.568172e-02 3.408926e-24
7.593171e-02 6.511028e-24
7.618171e-02 7.998799e-24
7.643172e-02 7.080808e-24
7.668172e-02 3.628373e-24
7.693172e-02 -1.661259e-24
7.718171e-02 -7.349479e-24
7.743172e-02 -1.160495e-23
7.768172e-02 -1.274679e-23
7.793172e-02 -9.834853e-24
7.818171e-02 -3.117409e-24
7.843171e-02 5.839544e-24
7.868172e-02 1.444164e-23
7.893172e-02 1.975166e-23
7.918172e-02 1.941184e-23
7.943171e-02 1.253551e-23
7.968171e-02 2.640532e-25
7.993172e-02 -1.425705e-23
8.018172e-02 -2.657709e-23
8.043171e-02 -3.219889e-23
8.068171e-02 -2.807387e-23
8.093172e-02 -1.387440e-23
8.118172e-02 7.421621e-24
8.143172e-02 2.994951e-23
8.168171e-02 4.641444e-23
8.193171e-02 5.027909e-23
8.218172e-02 3.807705e-23
8.243172e-02 1.110030e-23
8.268172e-02 -2.421143e-23
8.293171e-02 -5.753338e-23
8.318172e-02 -7.743233e-23
8.343172e-02 -7.498919e-23
8.368172e-02 -4.720227e-23
8.393171e-02 1.002790e-24
8.418171e-02 5.706487e-23
8.443172e-02 1.036753e-22
8.468172e-02 1.237383e-22
8.493172e-02 1.061004e-22
8.518171e-02 5.026697e-23
8.543171e-02 -3.163766e-23
8.568172e-02 -1.167842e-22
8.593172e-02 -1.774388e-22
8.618172e-02 -1.893682e-22
8.643171e-02 -1.404837e-22
8.668172e-02 -3.688624e-23
8.693172e-02 9.613751e-23
8.718172e-02 2.193347e-22
8.743171e-02 2.902176e-22
8.768171e-02 2.766444e-22
8.793172e-02 1.692030e-22
8.818172e-02 -1.192289e-23
8.843172e-02 -2.187937e-22
8.868171e-02 -3.870788e-22
8.893172e-02 -4.547271e-22
8.918172e-02 -3.829279e-22
8.943172e-02 -1.727726e-22
8.968171e-02 1.286224e-22
8.993171e-02 4.362743e-22
9.018172e-02 6.493813e-22
9.043172e-02 6.821812e-22
9.068172e-02 4.947978e-22
9.093171e-02 1.138345e-22
9.118171e-02 -3.657685e-22
9.143172e-02 -8.012327e-22
9.168172e-02 -1.041574e-21
9.193172e-02 -9.762822e-22
9.218171e-02 -5.783405e-22
9.243172e-02 7.356863e-23
9.268172e-02 8.043437e-22
9.293172e-02 1.385136e-21
9.318171e-02 1.600553e-21
9.343171e-02 1.322006e-21
9.368172e-02 5.638645e-22
9.393172e-02 -4.988663e-22
9.418172e-02 -1.563231e-21
9.443171e-02 -2.278435e-21
9.468171e-02 -2.354269e-21
9.493172e-02 -1.666384e-21
9.518172e-02 -3.231015e-22
9.543172e-02 1.334295e-21
9.568171e-02 2.808199e-21
9.593172e-02 3.584774e-21
9.618172e-02 3.301002e-21
9.643172e-02 1.887608e-21
9.668171e-02 -3.630474e-22
9.693171e-02 -2.838042e-21
9.718172e-02 -4.757016e-21
9.743172e-02 -5.403889e-21
9.768172e-02 -4.372631e-21
9.793171e-02 -1.748106e-21
9.818172e-02 1.847546e-21
9.843172e-02 5.378625e-21
9.868172e-02 7.674574e-21
9.893171e-02 7.795078e-21
9.918171e-02 5.374194e-21
9.943172e-02 8.268840e-22
9.968172e-02 -4.670731e-21
9.993172e-02 -9.454695e-21
1.001817e-01 -1.184788e-20
1.004317e-01 -1.070960e-20
1.006817e-01 -5.890252e-21
1.009317e-01 1.572753e-21
1.011817e-01 9.620635e-21
1.014317e-01 1.569921e-20
1.016817e-01 1.752523e-20
1.019317e-01 1.387621e-20
1.021817e-01 5.147407e-21
1.024317e-01 -6.541476e-21
1.026817e-01 -1.779054e-20
1.029317e-01 -2.484932e-20
1.031817e-01 -2.479677e-20
1.034317e-01 -1.662006e-20
1.036817e-01 -1.822989e-21
1.039317e-01 1.570375e-20
1.041817e-01 3.061455e-20
1.044317e-01 3.765241e-20
1.046817e-01 3.338512e-20
1.049317e-01 1.759165e-20
1.051817e-01 -6.206337e-21
1.054317e-01 -3.136448e-20
1.056817e-01 -4.984780e-20
1.059317e-01 -5.466492e-20
1.061817e-01 -4.230560e-20
1.064317e-01 -1.438263e-20
1.066817e-01 2.217278e-20
1.069317e-01 5.663012e-20
1.071817e-01 7.743684e-20
1.074317e-01 7.588284e-20
1.076817e-01 4.934786e-20
1.079317e-01 3.009731e-21
1.081817e-01 -5.076133e-20
1.084317e-01 -9.544598e-20
1.086817e-01 -1.151996e-19
1.089317e-01 -1.001245e-19
1.091817e-01 -5.032689e-20
1.094317e-01 2.273661e-20
1.096817e-01 9.843775e-20
1.099317e-01 1.524531e-19
1.101817e-01 1.641997e-19
1.104317e-01 1.240679e-19
1.106817e-01 3.805727e-20
1.109317e-01 -7.205248e-20
1.111817e-01 -1.736616e-19
1.114317e-01 -2.325169e-19
1.116817e-01 -2.236617e-19
1.119317e-01 -1.408329e-19
1.121817e-01 -1.026370e-21
1.124317e-01 1.579110e-19
1.126817e-01 2.868161e-19
1.129317e-01 3.397159e-19
1.131817e-01 2.892355e-19
1.134317e-01 1.380023e-19
1.136817e-01 -7.820946e-20
1.139317e-01 -2.977207e-19
1.141817e-01 -4.495937e-19
1.144317e-01 -4.755026e-19
1.146817e-01 -3.503886e-19
1.149317e-01 -9.500759e-20
1.151817e-01 2.247923e-19
1.154317e-01 5.135685e-19
1.156817e-01 6.734534e-19
1.159317e-01 6.356695e-19
1.161817e-01 3.866979e-19
1.164317e-01 -2.012297e-20
1.166817e-01 -4.732407e-19
1.169317e-01 -8.315920e-19
1.171817e-01 -9.666247e-19
1.174317e-01 -8.056883e-19
1.176817e-01 -3.628510e-19
1.179317e-01 2.545046e-19
1.181817e-01 8.685668e-19
1.184317e-01 1.279805e-18
1.186817e-01 1.328972e-18
1.189317e-01 9.539488e-19
1.191817e-01 2.222809e-19
1.194317e-01 -6.742466e-19
1.196817e-01 -1.466068e-18
1.199317e-01 -1.883438e-18
1.201817e-01 -1.743900e-18
1.204317e-01 -1.022478e-18
1.206817e-01 1.204104e-19
1.209317e-01 1.367659e-18
1.211817e-01 2.328628e-18
1.214317e-01 2.656549e-18
1.216817e-01 2.166368e-18
1.219317e-01 9.148614e-19
1.221817e-01 -7.876933e-19
1.224317e-01 -2.446551e-18
1.226817e-01 -3.519877e-18
1.229317e-01 -3.588371e-18
1.231817e-01 -2.506118e-18
1.234317e-01 -4.814726e-19
1.236817e-01 1.946861e-18
1.239317e-01 4.043658e-18
1.241817e-01 5.091002e-18
1.244317e-01 4.622636e-18
1.246817e-01 2.605421e-18
1.249317e-01 -4.972938e-19
1.251817e-01 -3.815256e-18
1.254317e-01 -6.303383e-18
1.256817e-01 -7.058448e-18
1.259317e-01 -5.628084e-18
1.261817e-01 -2.211211e-18
1.264317e-01 2.328031e-18
1.266817e-01 6.659718e-18
1.269317e-01 9.361990e-18
1.271817e-01 9.369231e-18
1.274317e-01 6.358575e-18
1.276817e-01 9.424027e-19
1.279317e-01 -5.418415e-18
1.281817e-01 -1.078556e-17
1.284317e-01 -1.331238e-17
1.286817e-01 -1.185041e-17
1.289317e-01 -6.402063e-18
1.291817e-01 1.745126e-18
1.294317e-01 1.028317e-17
1.296817e-01 1.650852e-17
1.299317e-01 1.814755e-17
1.301817e-01 1.413948e-17
1.304317e-01 5.119139e-18
1.306817e-01 -6.591050e-18
1.309317e-01 -1.753410e-17
1.311817e-01 -2.410113e-17
1.314317e-01 -2.367634e-17
1.316817e-01 -1.559355e-17
1.319317e-01 -1.574429e-18
1.321817e-01 1.455247e-17
1.324317e-01 2.784338e-17
1.326817e-01 3.370343e-17
1.329317e-01 2.940498e-17
1.331817e-01 1.517734e-17
1.334317e-01 -5.532025e-18
1.336817e-01 -2.680253e-17
1.339317e-01 -4.186566e-17
1.341817e-01 -4.518599e-17
1.344317e-01 -3.437968e-17
1.346817e-01 -1.133409e-17
1.349317e-01 1.792089e-17
1.351817e-01 4.468823e-17
1.354317e-01 6.010129e-17
1.356817e-01 5.795370e-17
1.359317e-01 3.698843e-17
1.361817e-01 1.849487e-18
1.364317e-01 -3.775739e-17
1.366817e-01 -6.962321e-17
1.369317e-01 -8.268013e-17
1.371817e-01 -7.067961e-17
1.374317e-01 -3.472625e-17
1.376817e-01 1.627283e-17
1.379317e-01 6.761458e-17
1.381817e-01 1.028862e-16
1.384317e-01 1.090442e-16
1.386817e-01 8.096353e-17
1.389317e-01 2.393769e-17
1.391817e-01 -4.689353e-17
1.394317e-01 -1.103370e-16
1.396817e-01 -1.452891e-16
1.399317e-01 -1.375092e-16
1.401817e-01 -8.491803e-17
1.404317e-01 4.364850e-19
1.406817e-01 9.473320e-17
1.409317e-01 1.687558e-16